<?xml version='1.0' encoding='utf-8'?>
<VTKFile type="UnstructuredGrid" version="0.1" byte_order="LittleEndian"><UnstructuredGrid><Piece NumberOfPoints="2721" NumberOfCells="1300"><PointData><DataArray type="Float64" format="ascii" Name="displacement" NumberOfComponents="3">0.0000000000000000e+00 -6.2320720601408024e-02 0.0000000000000000e+00 0.0000000000000000e+00 -6.3956476367101806e-02 0.0000000000000000e+00 0.0000000000000000e+00 -6.5494340688313890e-02 0.0000000000000000e+00 0.0000000000000000e+00 -6.6934159964203266e-02 0.0000000000000000e+00 0.0000000000000000e+00 -6.8274992903585366e-02 0.0000000000000000e+00 0.0000000000000000e+00 -6.9516633540559356e-02 0.0000000000000000e+00 0.0000000000000000e+00 -7.0658458813960573e-02 0.0000000000000000e+00 0.0000000000000000e+00 -7.1700214412836222e-02 0.0000000000000000e+00 0.0000000000000000e+00 -7.2641594468631679e-02 0.0000000000000000e+00 0.0000000000000000e+00 -7.3482302471870195e-02 0.0000000000000000e+00 0.0000000000000000e+00 -7.4222356609768891e-02 0.0000000000000000e+00 0.0000000000000000e+00 -7.4861427938850256e-02 0.0000000000000000e+00 0.0000000000000000e+00 -7.5399882811738067e-02 0.0000000000000000e+00 0.0000000000000000e+00 -7.5837376448743415e-02 0.0000000000000000e+00 0.0000000000000000e+00 -7.6174673580010122e-02 0.0000000000000000e+00 0.0000000000000000e+00 -7.6411440584036081e-02 0.0000000000000000e+00 0.0000000000000000e+00 -7.6548883698511039e-02 0.0000000000000000e+00 0.0000000000000000e+00 -7.6586700041377465e-02 0.0000000000000000e+00 -1.5588729587793558e-05 -7.6584704498786571e-02 0.0000000000000000e+00 -7.9316763918979941e-06 -7.6546408959222434e-02 0.0000000000000000e+00 9.5990335464323852e-07 -7.6409009039673945e-02 0.0000000000000000e+00 1.0766303723194213e-05 -7.6171929508455791e-02 0.0000000000000000e+00 2.1596413449730000e-05 -7.5834646201033598e-02 0.0000000000000000e+00 3.3191436966208207e-05 -7.5396881778248742e-02 0.0000000000000000e+00 4.5603205169956420e-05 -7.4858391455339679e-02 0.0000000000000000e+00 5.8618710470372889e-05 -7.4219096388320874e-02 0.0000000000000000e+00 7.2237012364679003e-05 -7.3478967995367031e-02 0.0000000000000000e+00 8.6288426943181991e-05 -7.2638088021182060e-02 0.0000000000000000e+00 1.0071852521263947e-04 -7.1696602218352223e-02 0.0000000000000000e+00 1.1539488350443832e-04 -7.0654731106695859e-02 0.0000000000000000e+00 1.3020649528249059e-04 -6.9512772346569357e-02 0.0000000000000000e+00 1.4505498551767927e-04 -6.8271076753503107e-02 0.0000000000000000e+00 1.5976914170952647e-04 -6.6930083836432369e-02 0.0000000000000000e+00 1.7428468356718999e-04 -6.5490273359785356e-02 0.0000000000000000e+00 1.8836711888412647e-04 -6.3952222466074293e-02 0.0000000000000000e+00 2.0198912953698988e-04 -6.2316540474511947e-02 0.0000000000000000e+00 -3.1300276959126784e-05 -7.6577725249363307e-02 0.0000000000000000e+00 -1.5901525709096683e-05 -7.6539144965425771e-02 0.0000000000000000e+00 1.8208738480928767e-06 -7.6401411281712156e-02 0.0000000000000000e+00 2.1490882073437755e-05 -7.6163908351277523e-02 0.0000000000000000e+00 4.3114441105543748e-05 -7.5826234569949025e-02 0.0000000000000000e+00 6.6355744189705476e-05 -7.5388034039770013e-02 0.0000000000000000e+00 9.1152277767525788e-05 -7.4849139206212181e-02 0.0000000000000000e+00 1.1722025879947392e-04 -7.4209417840265843e-02 0.0000000000000000e+00 1.4444144889337596e-04 -7.3468896713108009e-02 0.0000000000000000e+00 1.7256750556926304e-04 -7.2627619487138653e-02 0.0000000000000000e+00 2.0142681412356009e-04 -7.1685772242758988e-02 0.0000000000000000e+00 2.3078969056290166e-04 -7.0643547043703639e-02 0.0000000000000000e+00 2.6043006002754476e-04 -6.9501271628341785e-02 0.0000000000000000e+00 2.9012447298901856e-04 -6.8259273917808186e-02 0.0000000000000000e+00 3.1959105263413461e-04 -6.6918017644617578e-02 0.0000000000000000e+00 -4.7208927314154852e-05 -7.6566377358203111e-02 0.0000000000000000e+00 3.4860645876728263e-04 -6.5477962388410457e-02 0.0000000000000000e+00 3.7683279567365713e-04 -6.3939707414060951e-02 0.0000000000000000e+00 -2.4058463450540723e-05 -7.6527075987780205e-02 0.0000000000000000e+00 4.0404680609485252e-04 -6.2303843037115302e-02 0.0000000000000000e+00 4.2985660436680205e-04 -6.0571103840674670e-02 0.0000000000000000e+00 2.5017468758243100e-06 -7.6388658955429622e-02 0.0000000000000000e+00 3.2088611066428545e-05 -7.6150498343781084e-02 0.0000000000000000e+00 6.4509198399025848e-05 -7.5812117198516202e-02 0.0000000000000000e+00 9.9432067313693539e-05 -7.5373227806863924e-02 0.0000000000000000e+00 1.3661952903020429e-04 -7.4833618450531256e-02 0.0000000000000000e+00 1.7576540863145938e-04 -7.4193214565700910e-02 0.0000000000000000e+00 2.1659767418855680e-04 -7.3452007430790126e-02 0.0000000000000000e+00 2.5881896866616807e-04 -7.2610088707283443e-02 0.0000000000000000e+00 -6.3422736310318981e-05 -7.6550084029159512e-02 0.0000000000000000e+00 3.0211914559872280e-04 -7.1667613518270834e-02 0.0000000000000000e+00 3.4619039390571465e-04 -7.0624813754339016e-02 0.0000000000000000e+00 -3.2478904211182752e-05 -7.6510048076827791e-02 0.0000000000000000e+00 3.9067689990397573e-04 -6.9481988790945082e-02 0.0000000000000000e+00 2.9688927649579753e-06 -7.6370760226050008e-02 0.0000000000000000e+00 4.3524601291979785e-04 -6.8239500033728306e-02 0.0000000000000000e+00 4.7948994110456081e-04 -6.6897784805631674e-02 0.0000000000000000e+00 4.2478591323471920e-05 -7.6131642008654757e-02 0.0000000000000000e+00 5.2304486497432867e-04 -6.5457332047279895e-02 0.0000000000000000e+00 8.5748339205128795e-05 -7.5792293520503165e-02 0.0000000000000000e+00 5.6544845459436050e-04 -6.3918716597127848e-02 0.0000000000000000e+00 1.3236272244906101e-04 -7.5352402880368805e-02 0.0000000000000000e+00 6.0630681860302318e-04 -6.2282555142747893e-02 0.0000000000000000e+00 6.4510635591309142e-04 -6.0549560047505169e-02 0.0000000000000000e+00 1.8198161531254509e-04 -7.4811809748139557e-02 0.0000000000000000e+00 2.3421469788527708e-04 -7.4170416697818375e-02 0.0000000000000000e+00 -8.0044449796380705e-05 -7.6529407783101425e-02 0.0000000000000000e+00 2.8869035427535930e-04 -7.3428262427928631e-02 0.0000000000000000e+00 -4.1264252203393582e-05 -7.6488134245252720e-02 0.0000000000000000e+00 3.4501890000773419e-04 -7.2585415196249323e-02 0.0000000000000000e+00 4.0279027780480090e-04 -7.1642071889562994e-02 0.0000000000000000e+00 3.1253978409767929e-06 -7.6347623792586097e-02 0.0000000000000000e+00 4.6158997299579070e-04 -7.0598439932702178e-02 0.0000000000000000e+00 5.2616078529503639e-05 -7.6107272162677236e-02 0.0000000000000000e+00 5.2095758772734146e-04 -6.9454854864080096e-02 0.0000000000000000e+00 1.0677116820371411e-04 -7.5766638526740954e-02 0.0000000000000000e+00 5.8043497885459179e-04 -6.8211652856618635e-02 0.0000000000000000e+00 1.6511893259825314e-04 -7.5325459248259147e-02 0.0000000000000000e+00 6.3950089828719386e-04 -6.6869303246629708e-02 0.0000000000000000e+00 2.2719737062621375e-04 -7.4783561780075988e-02 0.0000000000000000e+00 -9.7161275086758697e-05 -7.6503655325534103e-02 0.0000000000000000e+00 6.9764614361393824e-04 -6.5428269836514508e-02 0.0000000000000000e+00 7.5428318042224302e-04 -6.3889157724899517e-02 0.0000000000000000e+00 2.9255026765103511e-04 -7.4140895356862108e-02 0.0000000000000000e+00 -5.0482702121691728e-05 -7.6461123345076376e-02 0.0000000000000000e+00 8.0885507992734299e-04 -6.2252560343543435e-02 0.0000000000000000e+00 3.6069254529535777e-04 -7.3397485366421614e-02 0.0000000000000000e+00 8.6070876361370619e-04 -6.0519220480129754e-02 0.0000000000000000e+00 2.9177218395480381e-06 -7.6319184541781770e-02 0.0000000000000000e+00 4.3115842298812923e-04 -7.2553442564594853e-02 0.0000000000000000e+00 9.0925229334218067e-04 -5.8689867782297463e-02 0.0000000000000000e+00 6.2427853879748962e-05 -7.6077286870845487e-02 0.0000000000000000e+00 5.0342635816102434e-04 -7.1608946686658889e-02 0.0000000000000000e+00 1.2753148927996345e-04 -7.5735078207929865e-02 0.0000000000000000e+00 5.7699109175260454e-04 -7.0564242576448430e-02 0.0000000000000000e+00 1.9764806229542807e-04 -7.5292279405558368e-02 0.0000000000000000e+00 6.5127541093296798e-04 -6.9419644472349315e-02 0.0000000000000000e+00 -1.1489044912853642e-04 -7.6473404782168186e-02 0.0000000000000000e+00 7.2571239132791137e-04 -6.8175522099316779e-02 0.0000000000000000e+00 2.7223364768074506e-04 -7.4748778582501382e-02 0.0000000000000000e+00 -6.0227480498702727e-05 -7.6429076445147390e-02 0.0000000000000000e+00 7.9965291148188398e-04 -6.6832320561520678e-02 0.0000000000000000e+00 3.5073404501076774e-04 -7.4104511033932091e-02 0.0000000000000000e+00 2.2544865049563836e-06 -7.6285321035717266e-02 0.0000000000000000e+00 8.7245965314050361e-04 -6.5390535371381647e-02 0.0000000000000000e+00 4.3258134742805168e-04 -7.3359555810808053e-02 0.0000000000000000e+00 9.4340359241172297e-04 -6.3850746271787551e-02 0.0000000000000000e+00 7.1870903462247114e-05 -7.6041572029292792e-02 0.0000000000000000e+00 5.1721129952446128e-04 -7.2514008460181856e-02 0.0000000000000000e+00 1.0117811451172620e-03 -6.2213577939678549e-02 0.0000000000000000e+00 1.4797422502087584e-04 -7.5697438859282762e-02 0.0000000000000000e+00 1.0767860337550143e-03 -6.0479748226442372e-02 0.0000000000000000e+00 -1.3329053529208054e-04 -7.6437888478138927e-02 0.0000000000000000e+00 6.0401585641115267e-04 -7.1568093019804033e-02 0.0000000000000000e+00 2.2992132740493613e-04 -7.5252703567781798e-02 0.0000000000000000e+00 1.1376616568352701e-03 -5.8650009971628676e-02 0.0000000000000000e+00 6.9238153944265412e-04 -7.0522036786798720e-02 0.0000000000000000e+00 -7.0564934983682352e-05 -7.6391727320724523e-02 0.0000000000000000e+00 1.1935383057301904e-03 -5.6725214216990442e-02 0.0000000000000000e+00 7.8163571745595384e-04 -6.9376189466539714e-02 0.0000000000000000e+00 3.1705184460318345e-04 -7.4707247621191880e-02 0.0000000000000000e+00 1.0937625985030320e-06 -7.6245927380100692e-02 0.0000000000000000e+00 8.7108711671259889e-04 -6.8130901162381463e-02 0.0000000000000000e+00 4.0874495976090237e-04 -7.4061064608812580e-02 0.0000000000000000e+00 9.5997681805444393e-04 -6.6786646981213227e-02 0.0000000000000000e+00 8.0878538658654065e-05 -7.5999982161196383e-02 0.0000000000000000e+00 5.0432745014937649e-04 -7.3314225852275525e-02 0.0000000000000000e+00 -1.5249229113137690e-04 -7.6397708036467740e-02 0.0000000000000000e+00 1.0475253008537244e-03 -6.5343901830838463e-02 0.0000000000000000e+00 1.6806171835737505e-04 -7.5653600692395212e-02 0.0000000000000000e+00 6.0316159616264850e-04 -7.2466877032282440e-02 0.0000000000000000e+00 1.1328752338736555e-03 -6.3803274385889786e-02 0.0000000000000000e+00 -8.1575509374307427e-05 -7.6349128028911764e-02 0.0000000000000000e+00 2.6189039500270413e-04 -7.5206560679353662e-02 0.0000000000000000e+00 7.0453706360501772e-04 -7.1519229458204200e-02 0.0000000000000000e+00 1.2151658562541386e-03 -6.2165369924520326e-02 0.0000000000000000e+00 8.0775356462009832e-04 -7.0471551132852542e-02 0.0000000000000000e+00 1.2934410343221009e-03 -6.0430938319623879e-02 0.0000000000000000e+00 3.6162272166707579e-04 -7.4658813994714690e-02 0.0000000000000000e+00 -6.4686947201481864e-07 -7.6200849529557510e-02 0.0000000000000000e+00 1.3667799626897812e-03 -5.8600724523599247e-02 0.0000000000000000e+00 9.1202931250441511e-04 -6.9324173859401456e-02 0.0000000000000000e+00 4.6654511977146912e-04 -7.4010350325021831e-02 0.0000000000000000e+00 8.9415107042759500e-05 -7.5952360374512959e-02 0.0000000000000000e+00 1.4341341234943882e-03 -5.6675620387296677e-02 0.0000000000000000e+00 1.0165678802096640e-03 -6.8077481249677427e-02 0.0000000000000000e+00 5.7590653693485806e-04 -7.3261301419739952e-02 0.0000000000000000e+00 1.8774686242384068e-04 -7.5603339095150671e-02 0.0000000000000000e+00 1.1204863831109683e-03 -6.6731927275910194e-02 0.0000000000000000e+00 -9.3320771669181036e-05 -7.6300956643457318e-02 0.0000000000000000e+00 6.8897824299331495e-04 -7.2411806225773714e-02 0.0000000000000000e+00 1.2228797838958927e-03 -6.5288017240398885e-02 0.0000000000000000e+00 2.9353035323418850e-04 -7.5153634751434314e-02 0.0000000000000000e+00 8.0497225501110852e-04 -7.1462122467151598e-02 0.0000000000000000e+00 -2.9995862809492324e-06 -7.6149939430116831e-02 0.0000000000000000e+00 1.3227485240636502e-03 -6.3746338238861278e-02 0.0000000000000000e+00 4.0591093135548893e-04 -7.4603203474407256e-02 0.0000000000000000e+00 9.2308584031669560e-04 -7.0412507325948948e-02 0.0000000000000000e+00 1.4190864722750114e-03 -6.2107525900565654e-02 0.0000000000000000e+00 9.7424100096206288e-05 -7.5898518736876336e-02 0.0000000000000000e+00 5.2411142920888887e-04 -7.3952102477502044e-02 0.0000000000000000e+00 1.5107795417798535e-03 -6.0372309949024386e-02 0.0000000000000000e+00 1.0424519720764788e-03 -6.9263326137298131e-02 0.0000000000000000e+00 2.0699839471056657e-04 -7.5546487563067311e-02 0.0000000000000000e+00 6.4728536188586518e-04 -7.3200464921574948e-02 0.0000000000000000e+00 1.5967419879273277e-03 -5.8541458756856637e-02 0.0000000000000000e+00 1.1621518224578648e-03 -6.8014948306086551e-02 0.0000000000000000e+00 1.7120101219664401e-03 -5.4605265869644266e-02 0.0000000000000000e+00 1.6757658214182896e-03 -5.6615843600372938e-02 0.0000000000000000e+00 3.2479925832771422e-04 -7.5093702299151910e-02 0.0000000000000000e+00 7.7463673048272280e-04 -7.2348485089861761e-02 0.0000000000000000e+00 1.2812010727867730e-03 -6.6667854248102815e-02 0.0000000000000000e+00 4.4988814794528370e-04 -7.4540201858353014e-02 0.0000000000000000e+00 1.3985504655624514e-03 -6.5222533456750428e-02 0.0000000000000000e+00 9.0528820971637596e-04 -7.1396414063477340e-02 0.0000000000000000e+00 1.5130764064925826e-03 -6.3679599947792792e-02 0.0000000000000000e+00 1.0383567210193372e-03 -7.0344550404930289e-02 0.0000000000000000e+00 5.8140584130822253e-04 -7.3886050006363654e-02 0.0000000000000000e+00 2.2578012596600249e-04 -7.5482770631660853e-02 0.0000000000000000e+00 1.6236111587813033e-03 -6.2039674801208852e-02 0.0000000000000000e+00 1.1728773908690180e-03 -6.9193245095006420e-02 0.0000000000000000e+00 7.1843419873471109e-04 -7.3131448110954150e-02 0.0000000000000000e+00 1.7288898238762924e-03 -6.0303521881426278e-02 0.0000000000000000e+00 3.5567692431030335e-04 -7.5026491113267590e-02 0.0000000000000000e+00 1.3078308516025442e-03 -6.7942898920186817e-02 0.0000000000000000e+00 8.6009840582317401e-04 -7.2276592459580943e-02 0.0000000000000000e+00 1.8276579750864869e-03 -5.8471907975979419e-02 0.0000000000000000e+00 1.4421148821639656e-03 -6.6593973909721008e-02 0.0000000000000000e+00 4.9352313217267466e-04 -7.4469474541378436e-02 0.0000000000000000e+00 1.9603165367153676e-03 -5.4537672473823941e-02 0.0000000000000000e+00 1.9185185861781081e-03 -5.6545752170219399e-02 0.0000000000000000e+00 1.0054566195507313e-03 -7.1321781042734123e-02 0.0000000000000000e+00 1.5745564564324948e-03 -6.5146987858630226e-02 0.0000000000000000e+00 6.3840185219803667e-04 -7.3811862600501293e-02 0.0000000000000000e+00 1.1535314741513336e-03 -7.0267308450915389e-02 0.0000000000000000e+00 1.7038893734906907e-03 -6.3602536551343861e-02 0.0000000000000000e+00 7.8931382658640873e-04 -7.3053867921998833e-02 0.0000000000000000e+00 1.3032880850116614e-03 -6.9113554108673009e-02 0.0000000000000000e+00 1.8287995322191829e-03 -6.1961271775594982e-02 0.0000000000000000e+00 9.4532686360746410e-04 -7.2195746786371792e-02 0.0000000000000000e+00 1.4535859703139937e-03 -6.7860910260537241e-02 0.0000000000000000e+00 1.9478583103179894e-03 -6.0223941737488615e-02 0.0000000000000000e+00 5.3678741755745437e-04 -7.4390749931617414e-02 0.0000000000000000e+00 1.6032336276927779e-03 -6.6509858963442331e-02 0.0000000000000000e+00 1.1054286672269160e-03 -7.1237795726317277e-02 0.0000000000000000e+00 2.0596428248347205e-03 -5.8391339642242530e-02 0.0000000000000000e+00 6.9505969977290698e-04 -7.3729205471272166e-02 0.0000000000000000e+00 2.2440005533502952e-03 -5.2361045559486168e-02 0.0000000000000000e+00 2.2100710705965426e-03 -5.4459311950778723e-02 0.0000000000000000e+00 2.1625918938121659e-03 -5.6464369617870311e-02 0.0000000000000000e+00 1.7509088611426676e-03 -6.5060907709844143e-02 0.0000000000000000e+00 1.2685706743102722e-03 -7.0180349032403264e-02 0.0000000000000000e+00 8.5988604305461264e-04 -7.2967382580389720e-02 0.0000000000000000e+00 1.8952270127887297e-03 -6.3514676158704625e-02 0.0000000000000000e+00 1.4336360277902736e-03 -6.9023773926365578e-02 0.0000000000000000e+00 1.0302720294269796e-03 -7.2105548752265533e-02 0.0000000000000000e+00 2.0347042258380800e-03 -6.1871807652120192e-02 0.0000000000000000e+00 1.5993892033238689e-03 -6.7768489241645788e-02 0.0000000000000000e+00 2.1677587466099831e-03 -6.0133088388944607e-02 0.0000000000000000e+00 1.2051618159734799e-03 -7.1144044197496439e-02 0.0000000000000000e+00 7.5134740275772949e-04 -7.3637687774128338e-02 0.0000000000000000e+00 1.7645280329456488e-03 -6.6414960504765530e-02 0.0000000000000000e+00 2.2927914733429640e-03 -5.8299318487816103e-02 0.0000000000000000e+00 1.3834217630293063e-03 -7.0083206332788958e-02 0.0000000000000000e+00 9.3010269457568921e-04 -7.2871550497061982e-02 0.0000000000000000e+00 1.9276075909931180e-03 -6.4963720080984708e-02 0.0000000000000000e+00 2.4996037666343554e-03 -5.2274907028660812e-02 0.0000000000000000e+00 2.4613829468264018e-03 -5.4369716249629989e-02 0.0000000000000000e+00 2.4080378224489874e-03 -5.6371461727857231e-02 0.0000000000000000e+00 1.5638878488614862e-03 -6.8923419967094154e-02 0.0000000000000000e+00 2.0870980436164632e-03 -6.3415373178687257e-02 0.0000000000000000e+00 1.1148818936737349e-03 -7.2005553954173240e-02 0.0000000000000000e+00 1.7452022227666861e-03 -6.7665101647715498e-02 0.0000000000000000e+00 2.2413663579800742e-03 -6.1770595108800334e-02 0.0000000000000000e+00 1.3045867832609413e-03 -7.1040039853630915e-02 0.0000000000000000e+00 2.3886570978848597e-03 -6.0030162539236265e-02 0.0000000000000000e+00 1.9259895544917610e-03 -6.6308725975398289e-02 0.0000000000000000e+00 1.4980243143371259e-03 -6.9975379500228946e-02 0.0000000000000000e+00 2.5271967726769656e-03 -5.8194907663079415e-02 0.0000000000000000e+00 2.1046464877407861e-03 -6.4854821670331908e-02 0.0000000000000000e+00 1.6939698956610963e-03 -6.8811945066847915e-02 0.0000000000000000e+00 2.7821959421448655e-03 -4.9994299550146205e-02 0.0000000000000000e+00 2.7570857942892987e-03 -5.2177108801544858e-02 0.0000000000000000e+00 2.7144159386120600e-03 -5.4267949857523402e-02 0.0000000000000000e+00 2.6550485225766830e-03 -5.6265786899612355e-02 0.0000000000000000e+00 2.2795294768015290e-03 -6.3304013978070617e-02 0.0000000000000000e+00 1.8909764625118634e-03 -6.7550170471435647e-02 0.0000000000000000e+00 1.4036436288362741e-03 -7.0925275730354009e-02 0.0000000000000000e+00 2.4488236241703766e-03 -6.1656977718278362e-02 0.0000000000000000e+00 2.0875647551821075e-03 -6.6190514769801853e-02 0.0000000000000000e+00 1.6123039803179872e-03 -6.9856307594615696e-02 0.0000000000000000e+00 2.6106132331166149e-03 -5.9914535092167140e-02 0.0000000000000000e+00 2.2820082268053920e-03 -6.4733526245427844e-02 0.0000000000000000e+00 2.7629390846853805e-03 -5.8077536557835409e-02 0.0000000000000000e+00 1.8238325763586876e-03 -6.8688750942066307e-02 0.0000000000000000e+00 2.4725101828215901e-03 -6.3179821159518090e-02 0.0000000000000000e+00 3.0523698793425455e-03 -4.7619792097350309e-02 0.0000000000000000e+00 3.0445795694313822e-03 -4.9888732038839548e-02 0.0000000000000000e+00 3.0165350568063937e-03 -5.2066969931481667e-02 0.0000000000000000e+00 2.9692475805718553e-03 -5.4153397598196429e-02 0.0000000000000000e+00 2.9036382096217172e-03 -5.6147018056365683e-02 0.0000000000000000e+00 2.0366536702118099e-03 -6.7423044419804165e-02 0.0000000000000000e+00 2.6571012412773751e-03 -6.1530109462662241e-02 0.0000000000000000e+00 1.7261782008281283e-03 -6.9725433836826570e-02 0.0000000000000000e+00 2.2492337291137869e-03 -6.6059639156907948e-02 0.0000000000000000e+00 2.8336747881982328e-03 -5.9785213536385953e-02 0.0000000000000000e+00 2.4596723484424749e-03 -6.4599088462652082e-02 0.0000000000000000e+00 1.9533750676614717e-03 -6.8553235137288324e-02 0.0000000000000000e+00 3.0000883484383452e-03 -5.7946026318751447e-02 0.0000000000000000e+00 2.6660590544022320e-03 -6.3042025472629659e-02 0.0000000000000000e+00 2.1821684038912134e-03 -6.7283066768917515e-02 0.0000000000000000e+00 3.3182778659583034e-03 -4.7506746834119803e-02 0.0000000000000000e+00 3.3092170634883718e-03 -4.9770365611132128e-02 0.0000000000000000e+00 3.2781052329710542e-03 -5.1943446948722466e-02 0.0000000000000000e+00 3.2260219350281178e-03 -5.4024873323225975e-02 0.0000000000000000e+00 3.1539934058650559e-03 -5.6013587688661194e-02 0.0000000000000000e+00 2.8662264551545108e-03 -6.1389170511442624e-02 0.0000000000000000e+00 2.4109226782256413e-03 -6.5915365632900888e-02 0.0000000000000000e+00 3.0578907524017943e-03 -5.9641406547664567e-02 0.0000000000000000e+00 2.6376113054199361e-03 -6.4450697766384374e-02 0.0000000000000000e+00 3.2387137992720824e-03 -5.7799659949450050e-02 0.0000000000000000e+00 2.8601521524578462e-03 -6.2889696935056416e-02 0.0000000000000000e+00 3.5722759273279815e-03 -4.5033810236577904e-02 0.0000000000000000e+00 3.5866248343313506e-03 -4.7380663394660426e-02 0.0000000000000000e+00 3.5761844461202302e-03 -4.9638321592700728e-02 0.0000000000000000e+00 3.5418354114946553e-03 -5.1805675060943877e-02 0.0000000000000000e+00 3.4847775816564354e-03 -5.3881598963239533e-02 0.0000000000000000e+00 3.4060852935627389e-03 -5.5865082863723887e-02 0.0000000000000000e+00 2.5726085316482468e-03 -6.5756853949598543e-02 0.0000000000000000e+00 3.0762145851400018e-03 -6.1233126305513780e-02 0.0000000000000000e+00 3.2832954977733298e-03 -5.9481885089543739e-02 0.0000000000000000e+00 2.8157987369484220e-03 -6.4287446533617801e-02 0.0000000000000000e+00 3.4788610933994099e-03 -5.7636961047942206e-02 0.0000000000000000e+00 3.0548084991753720e-03 -6.2721887900613602e-02 0.0000000000000000e+00 3.8001514861609434e-03 -4.2472802734951749e-02 0.0000000000000000e+00 3.8427208595131802e-03 -4.4900465468927328e-02 0.0000000000000000e+00 3.8575104102499939e-03 -4.7240403740774733e-02 0.0000000000000000e+00 3.8455627709378104e-03 -4.9491413552141150e-02 0.0000000000000000e+00 3.8078522215200081e-03 -5.1652353756721801e-02 0.0000000000000000e+00 3.7456350586952294e-03 -5.3722085750687612e-02 0.0000000000000000e+00 3.6600957427960182e-03 -5.5699527404706801e-02 0.0000000000000000e+00 3.2870906380787998e-03 -6.1060966663173878e-02 0.0000000000000000e+00 3.5099307879854270e-03 -5.9305672229922501e-02 0.0000000000000000e+00 3.7205924636734729e-03 -5.7457045236014949e-02 0.0000000000000000e+00 3.4988676142552722e-03 -6.0871416258372932e-02 0.0000000000000000e+00 3.9952287002395677e-03 -3.9827146045315953e-02 0.0000000000000000e+00 4.0708101198075478e-03 -4.2333042139839253e-02 0.0000000000000000e+00 4.1157748849692194e-03 -4.4752701363833511e-02 0.0000000000000000e+00 4.1309126165994733e-03 -4.7084944860288636e-02 0.0000000000000000e+00 4.1173667587592732e-03 -4.9328549464315613e-02 0.0000000000000000e+00 4.0761281940015371e-03 -5.1482402020139942e-02 0.0000000000000000e+00 4.0085817387846097e-03 -5.3545368307531871e-02 0.0000000000000000e+00 3.9159441962835270e-03 -5.5516424089933993e-02 0.0000000000000000e+00 3.7378233471705180e-03 -5.9111233521697136e-02 0.0000000000000000e+00 3.9639228039327389e-03 -5.7258060724122678e-02 0.0000000000000000e+00 4.1503572764227097e-03 -3.7100583072880930e-02 0.0000000000000000e+00 4.2640629080385860e-03 -3.9681882670283185e-02 0.0000000000000000e+00 4.3441076502555888e-03 -4.2178520004855460e-02 0.0000000000000000e+00 4.3914164982037304e-03 -4.4589257602046357e-02 0.0000000000000000e+00 4.4068616561919651e-03 -4.6912908170278128e-02 0.0000000000000000e+00 4.3916094036574298e-03 -4.9148274590786835e-02 0.0000000000000000e+00 4.3467498186444435e-03 -5.1294219536528816e-02 0.0000000000000000e+00 4.2737040432412905e-03 -5.3349590472024498e-02 0.0000000000000000e+00 4.1738026262247872e-03 -5.5313282700477646e-02 0.0000000000000000e+00 0.0000000000000000e+00 0.0000000000000000e+00 0.0000000000000000e+00 0.0000000000000000e+00 -3.5950242042959882e-03 0.0000000000000000e+00 0.0000000000000000e+00 -7.1185412251670403e-03 0.0000000000000000e+00 0.0000000000000000e+00 -1.0568230958054004e-02 0.0000000000000000e+00 0.0000000000000000e+00 -1.3944275640152956e-02 0.0000000000000000e+00 0.0000000000000000e+00 -1.7244160812699555e-02 0.0000000000000000e+00 0.0000000000000000e+00 -2.0468015842128737e-02 0.0000000000000000e+00 0.0000000000000000e+00 -2.3613210240735892e-02 0.0000000000000000e+00 0.0000000000000000e+00 -2.6679857601742581e-02 0.0000000000000000e+00 0.0000000000000000e+00 -2.9665277229282774e-02 0.0000000000000000e+00 0.0000000000000000e+00 -3.2569572631693154e-02 0.0000000000000000e+00 0.0000000000000000e+00 -3.5390070581722194e-02 0.0000000000000000e+00 0.0000000000000000e+00 -3.8126867406640008e-02 0.0000000000000000e+00 0.0000000000000000e+00 -4.0777348819078907e-02 0.0000000000000000e+00 0.0000000000000000e+00 -4.3341606099483510e-02 0.0000000000000000e+00 0.0000000000000000e+00 -4.5817130200812912e-02 0.0000000000000000e+00 0.0000000000000000e+00 -4.8204009000781367e-02 0.0000000000000000e+00 0.0000000000000000e+00 -5.0499880740800196e-02 0.0000000000000000e+00 0.0000000000000000e+00 -5.2704831125236148e-02 0.0000000000000000e+00 0.0000000000000000e+00 -5.4816691960180824e-02 0.0000000000000000e+00 0.0000000000000000e+00 -5.6835547270502815e-02 0.0000000000000000e+00 0.0000000000000000e+00 -5.8759417288300371e-02 0.0000000000000000e+00 0.0000000000000000e+00 -6.0588333325135441e-02 0.0000000000000000e+00 2.1485261845449350e-04 -6.0583938553395875e-02 0.0000000000000000e+00 2.2697024139616174e-04 -5.8755153009288838e-02 0.0000000000000000e+00 0.0000000000000000e+00 0.0000000000000000e+00 0.0000000000000000e+00 2.9783243563163852e-05 -3.5948908362152098e-03 0.0000000000000000e+00 5.7680121790025009e-05 -7.1177462261438939e-03 0.0000000000000000e+00 8.3966654928833471e-05 -1.0567467961901186e-02 0.0000000000000000e+00 1.0821392050447267e-04 -1.3942907871194279e-02 0.0000000000000000e+00 1.3074329302180564e-04 -1.7242875277307633e-02 0.0000000000000000e+00 1.5114319740484476e-04 -2.0466140241318355e-02 0.0000000000000000e+00 1.6976726175496349e-04 -2.3611447617573667e-02 0.0000000000000000e+00 1.8622248310330486e-04 -2.6677520086312346e-02 0.0000000000000000e+00 2.0088435225397542e-04 -2.9663071957077822e-02 0.0000000000000000e+00 2.1338231388196054e-04 -3.2566810927476320e-02 0.0000000000000000e+00 2.2410503327197426e-04 -3.5387450944131774e-02 0.0000000000000000e+00 2.3270838633965952e-04 -3.8123713391893278e-02 0.0000000000000000e+00 2.3958644818624820e-04 -4.0774338613228218e-02 0.0000000000000000e+00 2.4442540457955290e-04 -4.3338087180863655e-02 0.0000000000000000e+00 2.4761764945845506e-04 -4.5813749775220021e-02 0.0000000000000000e+00 2.4888337437690289e-04 -4.8200148979622187e-02 0.0000000000000000e+00 2.4860664241061170e-04 -5.0496147174919272e-02 0.0000000000000000e+00 2.4654617239484020e-04 -5.2700649207039228e-02 0.0000000000000000e+00 2.4307011611082101e-04 -5.4812606550223408e-02 0.0000000000000000e+00 2.3798193263798584e-04 -5.6831018004238211e-02 0.0000000000000000e+00 4.5404361119379713e-04 -5.8742215325565325e-02 0.0000000000000000e+00 0.0000000000000000e+00 0.0000000000000000e+00 0.0000000000000000e+00 5.9526683181902982e-05 -3.5939319262606219e-03 0.0000000000000000e+00 1.1550927641706206e-04 -7.1158843353841018e-03 0.0000000000000000e+00 1.6799324052997123e-04 -1.0564747231552178e-02 0.0000000000000000e+00 2.1665954186837676e-04 -1.3939379369921205e-02 0.0000000000000000e+00 2.6160722425506170e-04 -1.7238571055540112e-02 0.0000000000000000e+00 3.0257219491651042e-04 -2.0461102599053399e-02 0.0000000000000000e+00 3.3969531951082225e-04 -2.3605700021295122e-02 0.0000000000000000e+00 3.7276398856924374e-04 -2.6671098815181864e-02 0.0000000000000000e+00 4.0195376814894590e-04 -2.9655994173668543e-02 0.0000000000000000e+00 4.2709959336599481e-04 -3.2559108793459010e-02 0.0000000000000000e+00 4.4840618068965111e-04 -3.5379136819313421e-02 0.0000000000000000e+00 4.6575294213876500e-04 -3.8114816518422641e-02 0.0000000000000000e+00 4.7936875616188840e-04 -4.0764867576321133e-02 0.0000000000000000e+00 4.8917536014510613e-04 -4.3328069037608059e-02 0.0000000000000000e+00 4.9542108368673117e-04 -4.5803190214249813e-02 0.0000000000000000e+00 4.9806834594899878e-04 -4.8189073462324802e-02 0.0000000000000000e+00 4.9738015931649951e-04 -5.0484560265814007e-02 0.0000000000000000e+00 4.9335757914526499e-04 -5.2688575951828555e-02 0.0000000000000000e+00 4.8627408566101764e-04 -5.4800062234559362e-02 0.0000000000000000e+00 4.7616617652143607e-04 -5.6818044165603390e-02 0.0000000000000000e+00 6.8142902407416247e-04 -5.8720472806773734e-02 0.0000000000000000e+00 0.0000000000000000e+00 0.0000000000000000e+00 0.0000000000000000e+00 8.9391509340501672e-05 -3.5923395315985013e-03 0.0000000000000000e+00 1.7353679526487380e-04 -7.1127878542975170e-03 0.0000000000000000e+00 2.5231169611154662e-04 -1.0560221602041628e-02 0.0000000000000000e+00 3.2544608714045074e-04 -1.3933499386566382e-02 0.0000000000000000e+00 3.9288539261198322e-04 -1.7231398206263342e-02 0.0000000000000000e+00 4.5443918844877503e-04 -2.0452695897362094e-02 0.0000000000000000e+00 5.1011843969725208e-04 -2.3596109596045918e-02 0.0000000000000000e+00 5.5980386101261905e-04 -2.6660371719181227e-02 0.0000000000000000e+00 6.0356476004441609e-04 -2.9644172695639962e-02 0.0000000000000000e+00 6.4134515612592315e-04 -3.2546230937447636e-02 0.0000000000000000e+00 6.7326648554276436e-04 -3.5365239522810780e-02 0.0000000000000000e+00 6.9932967230089751e-04 -3.8099930679104436e-02 0.0000000000000000e+00 7.1970279678865558e-04 -4.0749026353946061e-02 0.0000000000000000e+00 7.3443864795542707e-04 -4.3311297451994128e-02 0.0000000000000000e+00 7.4374687832376560e-04 -4.57