<?xml version='1.0' encoding='utf-8'?>
<VTKFile type="UnstructuredGrid" version="0.1" byte_order="LittleEndian"><UnstructuredGrid><Piece NumberOfPoints="10641" NumberOfCells="5200"><PointData><DataArray type="Float64" format="ascii" Name="displacement" NumberOfComponents="3">0.0000000000000000e+00 0.0000000000000000e+00 0.0000000000000000e+00 0.0000000000000000e+00 -2.7737606386481375e-03 0.0000000000000000e+00 0.0000000000000000e+00 -5.5202567074304860e-03 0.0000000000000000e+00 0.0000000000000000e+00 -8.2390534295785096e-03 0.0000000000000000e+00 0.0000000000000000e+00 -1.0930187612050557e-02 0.0000000000000000e+00 0.0000000000000000e+00 -1.3593202032344470e-02 0.0000000000000000e+00 0.0000000000000000e+00 -1.6228124733063100e-02 0.0000000000000000e+00 0.0000000000000000e+00 -1.8834480679792598e-02 0.0000000000000000e+00 0.0000000000000000e+00 -2.1412295745719997e-02 0.0000000000000000e+00 0.0000000000000000e+00 -2.3961080656279974e-02 0.0000000000000000e+00 0.0000000000000000e+00 -2.6480859763475993e-02 0.0000000000000000e+00 0.0000000000000000e+00 -2.8971132824794452e-02 0.0000000000000000e+00 0.0000000000000000e+00 -3.1431922888340125e-02 0.0000000000000000e+00 0.0000000000000000e+00 -3.3862721812372813e-02 0.0000000000000000e+00 0.0000000000000000e+00 -3.6263551519419464e-02 0.0000000000000000e+00 0.0000000000000000e+00 -3.8633898800687072e-02 0.0000000000000000e+00 0.0000000000000000e+00 -4.0973784544723654e-02 0.0000000000000000e+00 0.0000000000000000e+00 -4.3282693149068983e-02 0.0000000000000000e+00 0.0000000000000000e+00 -4.5560644651799133e-02 0.0000000000000000e+00 0.0000000000000000e+00 -4.7807123545666040e-02 0.0000000000000000e+00 0.0000000000000000e+00 -5.0022149071845913e-02 0.0000000000000000e+00 0.0000000000000000e+00 -5.2205208155147918e-02 0.0000000000000000e+00 0.0000000000000000e+00 -5.4356319360354725e-02 0.0000000000000000e+00 0.0000000000000000e+00 -5.6474974259865980e-02 0.0000000000000000e+00 0.0000000000000000e+00 -5.8561190810740710e-02 0.0000000000000000e+00 0.0000000000000000e+00 -6.0614467334039905e-02 0.0000000000000000e+00 0.0000000000000000e+00 -6.2634821220699605e-02 0.0000000000000000e+00 0.0000000000000000e+00 -6.4621759467556231e-02 0.0000000000000000e+00 0.0000000000000000e+00 -6.6575299021786521e-02 0.0000000000000000e+00 0.0000000000000000e+00 -6.8494957469761267e-02 0.0000000000000000e+00 0.0000000000000000e+00 -7.0380751283794785e-02 0.0000000000000000e+00 0.0000000000000000e+00 -7.2232210407467620e-02 0.0000000000000000e+00 0.0000000000000000e+00 -7.4049350899935029e-02 0.0000000000000000e+00 0.0000000000000000e+00 -7.5831716755155362e-02 0.0000000000000000e+00 0.0000000000000000e+00 -7.7579323662286592e-02 0.0000000000000000e+00 0.0000000000000000e+00 -7.9291731164794474e-02 0.0000000000000000e+00 0.0000000000000000e+00 -8.0968954631434956e-02 0.0000000000000000e+00 0.0000000000000000e+00 -8.2610570807572989e-02 0.0000000000000000e+00 0.0000000000000000e+00 -8.4216594733376074e-02 0.0000000000000000e+00 0.0000000000000000e+00 -8.5786623695417175e-02 0.0000000000000000e+00 0.0000000000000000e+00 -8.7320672261721452e-02 0.0000000000000000e+00 0.0000000000000000e+00 -8.8818351480276475e-02 0.0000000000000000e+00 0.0000000000000000e+00 -9.0279666306721282e-02 0.0000000000000000e+00 0.0000000000000000e+00 -9.1704280943599309e-02 0.0000000000000000e+00 0.0000000000000000e+00 -9.3092176457453199e-02 0.0000000000000000e+00 0.0000000000000000e+00 -9.4443045390378247e-02 0.0000000000000000e+00 0.0000000000000000e+00 -9.5756864021685442e-02 0.0000000000000000e+00 1.6162298028303142e-04 -9.4441345476896546e-02 0.0000000000000000e+00 1.6662829514401664e-04 -9.3090432295632450e-02 0.0000000000000000e+00 1.7148033544282483e-04 -9.1702562093433040e-02 0.0000000000000000e+00 1.7612595302877963e-04 -9.0277900773392372e-02 0.0000000000000000e+00 1.8058946608613455e-04 -8.8816615536372795e-02 0.0000000000000000e+00 0.0000000000000000e+00 0.0000000000000000e+00 0.0000000000000000e+00 1.1714675482850157e-05 -2.7737326056640650e-03 0.0000000000000000e+00 2.3070614725148539e-05 -5.5200988002111380e-03 0.0000000000000000e+00 3.4122932996399041e-05 -8.2388938972477888e-03 0.0000000000000000e+00 4.4798910774839201e-05 -1.0929907999061544e-02 0.0000000000000000e+00 5.5158064331456980e-05 -1.3592927108944270e-02 0.0000000000000000e+00 6.5127602803858142e-05 -1.6227731045900782e-02 0.0000000000000000e+00 7.4770239607511570e-05 -1.8834096142598143e-02 0.0000000000000000e+00 8.4012802540737568e-05 -2.1411793367561580e-02 0.0000000000000000e+00 9.2920581448462252e-05 -2.3960591161198887e-02 0.0000000000000000e+00 1.0142033746795006e-04 -2.6480253468195509e-02 0.0000000000000000e+00 1.0957942668474936e-04 -2.8970542557815192e-02 0.0000000000000000e+00 1.1732480770605296e-04 -3.1431216995968889e-02 0.0000000000000000e+00 1.2472558563377876e-04 -3.3862034539905439e-02 0.0000000000000000e+00 1.3170915452810549e-04 -3.6262749973583565e-02 0.0000000000000000e+00 1.3834582566515566e-04 -3.8633117955160112e-02 0.0000000000000000e+00 1.4456378593736511e-04 -4.0972890911062015e-02 0.0000000000000000e+00 1.5043432157687563e-04 -4.3281821871842353e-02 0.0000000000000000e+00 1.5588653427359023e-04 -4.5559662274371110e-02 0.0000000000000000e+00 1.6099228813326038e-04 -4.7806164756840429e-02 0.0000000000000000e+00 1.6568191832816662e-04 -5.0021081021003978e-02 0.0000000000000000e+00 1.7002751396345844e-04 -5.2204164561756104e-02 0.0000000000000000e+00 1.7396087413731217e-04 -5.4355168545650180e-02 0.0000000000000000e+00 1.7755403627773506e-04 -5.6473848448052970e-02 0.0000000000000000e+00 1.8074045240220867e-04 -5.8559960003603515e-02 0.0000000000000000e+00 1.8359179375865037e-04 -6.0613261750252154e-02 0.0000000000000000e+00 1.8604338963121962e-04 -6.2633513026965806e-02 0.0000000000000000e+00 1.8816631719812863e-04 -6.4620476464508539e-02 0.0000000000000000e+00 1.8989796376245088e-04 -6.6573916030431599e-02 0.0000000000000000e+00 1.9130848658684659e-04 -6.8493599358086535e-02 0.0000000000000000e+00 1.9233756077238751e-04 -7.0379295959298427e-02 0.0000000000000000e+00 1.9305418178828257e-04 -7.2230779413744561e-02 0.0000000000000000e+00 1.9340048549099600e-04 -7.4047825656827257e-02 0.0000000000000000e+00 1.9344411111279643e-04 -7.5830215071736193e-02 0.0000000000000000e+00 1.9312978277541369e-04 -7.7577730862175856e-02 0.0000000000000000e+00 1.9252348325161982e-04 -7.9290160978555402e-02 0.0000000000000000e+00 1.9157279321200342e-04 -8.0967296669436445e-02 0.0000000000000000e+00 1.9034188520202655e-04 -8.2608934236044387e-02 0.0000000000000000e+00 1.8878153983252347e-04 -8.4214873697610243e-02 0.0000000000000000e+00 1.8695358431357586e-04 -8.5784920068955675e-02 0.0000000000000000e+00 1.8481283268672596e-04 -8.7318881620726235e-02 0.0000000000000000e+00 3.2326460032765963e-04 -9.4436206382907867e-02 0.0000000000000000e+00 3.3329051835351970e-04 -9.3085261584876830e-02 0.0000000000000000e+00 3.4298263444534991e-04 -9.1697362531645565e-02 0.0000000000000000e+00 3.5229056983701785e-04 -9.0272677840557508e-02 0.0000000000000000e+00 3.6120321778634060e-04 -8.8811374361711173e-02 0.0000000000000000e+00 0.0000000000000000e+00 0.0000000000000000e+00 0.0000000000000000e+00 2.3417124604937804e-05 -2.7735412616453335e-03 0.0000000000000000e+00 4.6160870086489855e-05 -5.5197211445467808e-03 0.0000000000000000e+00 6.8245676783413404e-05 -8.2383347208025634e-03 0.0000000000000000e+00 8.9627230249615571e-05 -1.0929173024944300e-02 0.0000000000000000e+00 1.1032353678571276e-04 -1.3592019950556474e-02 0.0000000000000000e+00 1.3029220239933021e-04 -1.6226656766829595e-02 0.0000000000000000e+00 1.4955405296124261e-04 -1.8832857657323822e-02 0.0000000000000000e+00 1.6806886175239568e-04 -2.1410395284848061e-02 0.0000000000000000e+00 1.8585990547867945e-04 -2.3959035940606971e-02 0.0000000000000000e+00 2.0288912510041157e-04 -2.6478545380208742e-02 0.0000000000000000e+00 2.1918188769084196e-04 -2.8968683638292889e-02 0.0000000000000000e+00 2.3470231008020025e-04 -3.1429211266207867e-02 0.0000000000000000e+00 2.4947774954650159e-04 -3.3859883736120616e-02 0.0000000000000000e+00 2.6347432612303058e-04 -3.6260457861457353e-02 0.0000000000000000e+00 2.7672103951015866e-04 -3.8630685958086282e-02 0.0000000000000000e+00 2.8918616792032454e-04 -4.0970322649266137e-02 0.0000000000000000e+00 3.0090024861793445e-04 -4.3279118558268347e-02 0.0000000000000000e+00 3.1183349453478901e-04 -4.5556827359081453e-02 0.0000000000000000e+00 3.2201779790593654e-04 -4.7803199229382913e-02 0.0000000000000000e+00 3.3142541486307607e-04 -5.0017988233653547e-02 0.0000000000000000e+00 3.4008936794343583e-04 -5.2200945363643073e-02 0.0000000000000000e+00 3.4798390483064737e-04 -5.4351826198534410e-02 0.0000000000000000e+00 3.5514305019860719e-04 -5.6470383647200958e-02 0.0000000000000000e+00 3.6154305626008836e-04 -5.8556375949136749e-02 0.0000000000000000e+00 3.6721876670600862e-04 -6.0609559022053047e-02 0.0000000000000000e+00 3.7214844396522378e-04 -6.2629694788297857e-02 0.0000000000000000e+00 3.7636765249697503e-04 -6.4616543241544075e-02 0.0000000000000000e+00 3.7985661248662086e-04 -6.6569870924267818e-02 0.0000000000000000e+00 3.8265143054508978e-04 -6.8489442791004163e-02 0.0000000000000000e+00 3.8473437842040343e-04 -7.0375031023497375e-02 0.0000000000000000e+00 3.8614193608935143e-04 -7.2226406484789021e-02 0.0000000000000000e+00 3.8685841193157193e-04 -7.4043347816786509e-02 0.0000000000000000e+00 3.8692060489705938e-04 -7.5825632663099635e-02 0.0000000000000000e+00 3.8631479252689330e-04 -7.7573046947094756e-02 0.0000000000000000e+00 3.8507789630294522e-04 -7.9285375938357786e-02 0.0000000000000000e+00 3.8319830431870941e-04 -8.0962413638944533e-02 0.0000000000000000e+00 3.8071295150998659e-04 -8.2603953833662591e-02 0.0000000000000000e+00 3.7761217348620011e-04 -8.4209799248405368e-02 0.0000000000000000e+00 3.7393294689913402e-04 -8.5779754584011395e-02 0.0000000000000000e+00 3.6966741850341954e-04 -8.7313631875916217e-02 0.0000000000000000e+00 5.0000705397869891e-04 -9.3076631428164233e-02 0.0000000000000000e+00 5.1454601999965954e-04 -9.1688685123794411e-02 0.0000000000000000e+00 5.2851913504976605e-04 -9.0263958577065789e-02 0.0000000000000000e+00 5.4188876658501370e-04 -8.8802618556776680e-02 0.0000000000000000e+00 0.0000000000000000e+00 0.0000000000000000e+00 0.0000000000000000e+00 3.5132457267108809e-05 -2.7732249214873304e-03 0.0000000000000000e+00 6.9268932264148151e-05 -5.5190965744682397e-03 0.0000000000000000e+00 1.0239888354904243e-04 -8.2374086625785787e-03 0.0000000000000000e+00 1.3448990054099139e-04 -1.0927953856857558e-02 0.0000000000000000e+00 1.6553488778200633e-04 -1.3590514214438906e-02 0.0000000000000000e+00 1.9550499469980767e-04 -1.6224871904793051e-02 0.0000000000000000e+00 2.2439668597325712e-04 -1.8830799460580635e-02 0.0000000000000000e+00 2.5218471101698219e-04 -2.1408070387166266e-02 0.0000000000000000e+00 2.7886888996986016e-04 -2.3956449488525669e-02 0.0000000000000000e+00 3.0442732606430643e-04 -2.6475703295372303e-02 0.0000000000000000e+00 3.2886295045161728e-04 -2.8965590572352807e-02 0.0000000000000000e+00 3.5215714435160540e-04 -3.1425872576304852e-02 0.0000000000000000e+00 3.7431575816052401e-04 -3.3856303623782946e-02 0.0000000000000000e+00 3.9532312771475739e-04 -3.6256641162141688e-02 0.0000000000000000e+00 4.1518780976050531e-04 -3.8626636568590493e-02 0.0000000000000000e+00 4.3389709354699164e-04 -4.0966045006691258e-02 0.0000000000000000e+00 4.5146203534179071e-04 -4.3274616258932280e-02 0.0000000000000000e+00 4.6787258301855632e-04 -4.5552104448066594e-02 0.0000000000000000e+00 4.8314221061623186e-04 -4.7798259130959163e-02 0.0000000000000000e+00 4.9726347423642873e-04 -5.0012834709901095e-02 0.0000000000000000e+00 5.1025201192515573e-04 -5.2195581665331461e-02 0.0000000000000000e+00 5.2210284180968672e-04 -5.4346255814003472e-02 0.0000000000000000e+00 5.3283369158778002e-04 -5.6464609745591671e-02 0.0000000000000000e+00 5.4244193638685136e-04 -5.8550401799712888e-02 0.0000000000000000e+00 5.5094723582935125e-04 -6.0603387719695201e-02 0.0000000000000000e+00 5.5834925762099667e-04 -6.2623329428847921e-02 0.0000000000000000e+00 5.6466944782646912e-04 -6.4609986845023601e-02 0.0000000000000000e+00 5.6990963126981047e-04 -6.6563126412996845e-02 0.0000000000000000e+00 5.7409297533871507e-04 -6.8482513207902121e-02 0.0000000000000000e+00 5.7722341434665993e-04 -7.0367919145828225e-02 0.0000000000000000e+00 5.7932566111403266e-04 -7.2219115350050600e-02 0.0000000000000000e+00 5.8040570379451375e-04 -7.4035880097335416e-02 0.0000000000000000e+00 5.8048972644132182e-04 -7.5817991415508254e-02 0.0000000000000000e+00 5.7958564546786002e-04 -7.7565234744993564e-02 0.0000000000000000e+00 5.7772098930774737e-04 -7.9277395858047217e-02 0.0000000000000000e+00 5.7490561587594986e-04 -8.0954268156087472e-02 0.0000000000000000e+00 5.7116823286695569e-04 -8.2595645842591395e-02 0.0000000000000000e+00 5.6652075190031907e-04 -8.4201330962152834e-02 0.0000000000000000e+00 5.6099264155454914e-04 -8.5771126440296205e-02 0.0000000000000000e+00 5.5459766860013748e-04 -8.7304841998956523e-02 0.0000000000000000e+00 6.6680391400929934e-04 -9.3064530237735851e-02 0.0000000000000000e+00 6.8619797298431350e-04 -9.1676516837657734e-02 0.0000000000000000e+00 7.0484065812758073e-04 -9.0251733905158713e-02 0.0000000000000000e+00 7.2267574554049131e-04 -8.8790348312584852e-02 0.0000000000000000e+00 0.0000000000000000e+00 0.0000000000000000e+00 0.0000000000000000e+00 4.6863925164582986e-05 -2.7727815415529594e-03 0.0000000000000000e+00 9.2402458772652287e-05 -5.5182207523024936e-03 0.0000000000000000e+00 1.3659379322067934e-04 -8.2361115751340801e-03 0.0000000000000000e+00 1.7940222564212714e-04 -1.0926245517434641e-02 0.0000000000000000e+00 2.2081047104925941e-04 -1.3588404956701149e-02 0.0000000000000000e+00 2.6078832121953824e-04 -1.6222370760192156e-02 0.0000000000000000e+00 2.9932274700131072e-04 -1.8827915686388662e-02 0.0000000000000000e+00 3.3638878070782133e-04 -2.1404812073517229e-02 0.0000000000000000e+00 3.7197740251546010e-04 -2.3952824900595398e-02 0.0000000000000000e+00 4.0606847619788005e-04 -2.6471719707014847e-02 0.0000000000000000e+00 4.3865684977061569e-04 -2.8961255413195469e-02 0.0000000000000000e+00 4.6972702191255816e-04 -3.1421192440585125e-02 0.0000000000000000e+00 4.9927738549850650e-04 -3.3851285220009700e-02 0.0000000000000000e+00 5.2729665585103723e-04 -3.6251290525738639e-02 0.0000000000000000e+00 5.5378670243206652e-04 -3.8620959814359118e-02 0.0000000000000000e+00 5.7874026382329676e-04 -4.0960047708567864e-02 0.0000000000000000e+00 6.0216235904172815e-04 -4.3268303974902181e-02 0.0000000000000000e+00 6.2404946667467937e-04 -4.5545482427864617e-02 0.0000000000000000e+00 6.4440972786885176e-04 -4.7791332541792526e-02 0.0000000000000000e+00 6.6324309801237295e-04 -5.0005608495910646e-02 0.0000000000000000e+00 6.8056059433414925e-04 -5.2188060612440822e-02 0.0000000000000000e+00 6.9636548433245099e-04 -5.4338444667005485e-02 0.0000000000000000e+00 7.1067156541136797e-04 -5.6456513025164766e-02 0.0000000000000000e+00 7.2348517865636396e-04 -5.8542024083714984e-02 0.0000000000000000e+00 7.3482278349694310e-04 -6.0594733262865630e-02 0.0000000000000000e+00 7.4469369438865090e-04 -6.2614402695365404e-02 0.0000000000000000e+00 7.5311683271445226e-04 -6.4600791881387926e-02 0.0000000000000000e+00 7.6010428857056019e-04 -6.6553667624858398e-02 0.0000000000000000e+00 7.6567739877182327e-04 -6.8472794461519396e-02 0.0000000000000000e+00 7.6985091147120383e-04 -7.0357944807277015e-02 0.0000000000000000e+00 7.7264842033044397e-04 -7.2208889133737506e-02 0.0000000000000000e+00 7.7408720069246136e-04 -7.4025406352635839e-02 0.0000000000000000e+00 7.7419299151751581e-04 -7.5807273752293361e-02 0.0000000000000000e+00 7.7298544285456130e-04 -7.7554277536327945e-02 0.0000000000000000e+00 7.7049234679626663e-04 -7.9266202628402255e-02 0.0000000000000000e+00 7.6673560051068615e-04 -8.0942843323370997e-02 0.0000000000000000e+00 7.6174489560971277e-04 -8.2583993102569087e-02 0.0000000000000000e+00 7.5554410122989158e-04 -8.4189454941867914e-02 0.0000000000000000e+00 7.4816472555416151e-04 -8.5759033363797893e-02 0.0000000000000000e+00 7.3963239452681773e-04 -8.7292540806693769e-02 0.0000000000000000e+00 8.3370866999417316e-04 -9.3048925365663990e-02 0.0000000000000000e+00 8.5796730171020939e-04 -9.1660825677016097e-02 0.0000000000000000e+00 8.8128879342865073e-04 -9.0235966429504127e-02 0.0000000000000000e+00 9.0359977990295802e-04 -8.8774515849049079e-02 0.0000000000000000e+00 0.0000000000000000e+00 0.0000000000000000e+00 0.0000000000000000e+00 5.8615285435872699e-05 -2.7722093499807201e-03 0.0000000000000000e+00 1.1557363618402851e-04 -5.5170911495460249e-03 0.0000000000000000e+00 1.7084314971111138e-04 -8.2344393390969533e-03 0.0000000000000000e+00 2.2438415833385853e-04 -1.0924043759671953e-02 0.0000000000000000e+00 2.7617035717007803e-04 -1.3585686821078394e-02 0.0000000000000000e+00 3.2616869861089065e-04 -1.6219147851975500e-02 0.0000000000000000e+00 3.7435857188819108e-04 -1.8824199880539294e-02 0.0000000000000000e+00 4.2071311069817369e-04 -2.1400613632747829e-02 0.0000000000000000e+00 4.6521703446185115e-04 -2.3948154573332429e-02 0.0000000000000000e+00 5.0784923258691099e-04 -2.6466586593616365e-02 0.0000000000000000e+00 5.4859956782505790e-04 -2.8955669327382170e-02 0.0000000000000000e+00 5.8745235202216025e-04 -3.1415161484478440e-02 0.0000000000000000e+00 6.2440213762854433e-04 -3.3844818385682138e-02 0.0000000000000000e+00 6.5943832425023954e-04 -3.6244395093820332e-02 0.0000000000000000e+00 6.9256003605277431e-04 -3.8613644138767556e-02 0.0000000000000000e+00 7.2376137585623661e-04 -4.0952318342282301e-02 0.0000000000000000e+00 7.5304568568799611e-04 -4.3260168772057038e-02 0.0000000000000000e+00 7.8041154734080891e-04 -4.5536947391989178e-02 0.0000000000000000e+00 8.0586634158661991e-04 -4.7782405073567229e-02 0.0000000000000000e+00 8.2941278870062268e-04 -4.9996294103514298e-02 0.0000000000000000e+00 8.5106209759163267e-04 -5.2178366386998749e-02 0.0000000000000000e+00 8.7082092890431568e-04 -5.4328375746993923e-02 0.0000000000000000e+00 8.8870410381775402e-04 -5.6446076200892224e-02 0.0000000000000000e+00 9.0472197179735899e-04 -5.8531224173063445e-02 0.0000000000000000e+00 9.1889284916135444e-04 -6.0583576887281713e-02 0.0000000000000000e+00 9.3123061091050167e-04 -6.2602894417977076e-02 0.0000000000000000e+00 9.4175681613154697e-04 -6.4588938162047416e-02 0.0000000000000000e+00 9.5048867092520091e-04 -6.6541472814451011e-02 0.0000000000000000e+00 9.5745088138416454e-04 -6.8460264920750885e-02 0.0000000000000000e+00 9.6266382382671550e-04 -7.0345084723362844e-02 0.0000000000000000e+00 9.6615518554389775e-04 -7.2195704798290641e-02 0.0000000000000000e+00 9.6794835590714333e-04 -7.4011901825618495e-02 0.0000000000000000e+00 9.6807382027285405e-04 -7.5793455269324003e-02 0.0000000000000000e+00 9.6655781673041685e-04 -7.7540149059228528e-02 0.0000000000000000e+00 9.6343353635244800e-04 -7.9251770361142157e-02 0.0000000000000000e+00 9.5872991779246926e-04 -8.0928111156649885e-02 0.0000000000000000e+00 9.5248259470960843e-04 -8.2568967007134716e-02 0.0000000000000000e+00 9.4472324589539212e-04 -8.4174138621638389e-02 0.0000000000000000e+00 9.3548949248689335e-04 -8.5743430306423382e-02 0.0000000000000000e+00 9.2481572359523045e-04 -8.7276650720773716e-02 0.0000000000000000e+00 1.0298820196475030e-03 -9.1641587350442380e-02 0.0000000000000000e+00 1.0578927430501708e-03 -9.0216636639904868e-02 0.0000000000000000e+00 1.0846913026107319e-03 -8.8755110743418755e-02 0.0000000000000000e+00 0.0000000000000000e+00 0.0000000000000000e+00 0.0000000000000000e+00 7.0390902798713373e-05 -2.7715091345091748e-03 0.0000000000000000e+00 1.3879005110692456e-04 -5.5157091779661788e-03 0.0000000000000000e+00 2.0515985054538790e-04 -8.2323926538805225e-03 0.0000000000000000e+00 2.6945151805507142e-04 -1.0921348800351515e-02 0.0000000000000000e+00 3.3163475722643301e-04 -1.3582358992868891e-02 0.0000000000000000e+00 3.9166900456857570e-04 -1.6215201910736932e-02 0.0000000000000000e+00 4.4953056609484641e-04 -1.8819649582011256e-02 0.0000000000000000e+00 5.0518655124118413e-04 -2.1395472233807066e-02 0.0000000000000000e+00 5.5861943173528316e-04 -2.3942434331363886e-02 0.0000000000000000e+00 6.0980346062465334e-04 -2.6460299497070190e-02 0.0000000000000000e+00 6.5872703365383060e-04 -2.8948826361796815e-02 0.0000000000000000e+00 7.0537107963020834e-04 -3.1407773539592142e-02 0.0000000000000000e+00 7.4972946090695700e-04 -3.3836895368600413e-02 0.0000000000000000e+00 7.9178938183186787e-04 -3.6235947004305984e-02 0.0000000000000000e+00 8.3154998732919388e-04 -3.8604679986210769e-02 0.0000000000000000e+00 8.6900426340523896e-04 -4.0942847391859098e-02 0.0000000000000000e+00 9.0415629733645248e-04 -4.3250199301799554e-02 0.0000000000000000e+00 9.3700455000644931e-04 -4.5526488062310057e-02 0.0000000000000000e+00 9.6755778472967519e-04 -4.7771463523164338e-02 0.0000000000000000e+00 9.9581958309378333e-04 -4.9984878546778043e-02 0.0000000000000000e+00 1.0218031807725182e-03 -5.2166483974457882e-02 0.0000000000000000e+00 1.0455169525286695e-03 -5.4316034313540734e-02 0.0000000000000000e+00 1.0669783638756849e-03 -5.6433282442283954e-02 0.0000000000000000e+00 1.0862003402449182e-03 -5.8517985662137471e-02 0.0000000000000000e+00 1.1032044223175418e-03 -6.0569900014031668e-02 0.0000000000000000e+00 1.1180078132431673e-03 -6.2588786532398744e-02 0.0000000000000000e+00 1.1306358933296325e-03 -6.4574405360903475e-02 0.0000000000000000e+00 1.1411099407051220e-03 -6.6526522303677879e-02 0.0000000000000000e+00 1.1494590206578149e-03 -6.8444902586479617e-02 0.0000000000000000e+00 1.1557082727530635e-03 -7.0329317658266041e-02 0.0000000000000000e+00 1.1598902809757349e-03 -7.2179538703235138e-02 0.0000000000000000e+00 1.1620338709362439e-03 -7.3995343727862511e-02 0.0000000000000000e+00 1.1621749075335158e-03 -7.5776510724418975e-02 0.0000000000000000e+00 1.1603456963663644e-03 -7.7522825070772655e-02 0.0000000000000000e+00 1.1565853008180160e-03 -7.9234072421902224e-02 0.0000000000000000e+00 1.1509292810400751e-03 -8.0910046294957322e-02 0.0000000000000000e+00 1.1434196261841006e-03 -8.2550540889406013e-02 0.0000000000000000e+00 1.1340948129235353e-03 -8.4155358517010240e-02 0.0000000000000000e+00 1.1229997242883695e-03 -8.5724304523143530e-02 0.0000000000000000e+00 1.1101755794804831e-03 -8.7257190804803528e-02 0.0000000000000000e+00 1.2346850518932435e-03 -9.0193692142968906e-02 0.0000000000000000e+00 1.2659853642051667e-03 -8.8732069923249834e-02 0.0000000000000000e+00 0.0000000000000000e+00 0.0000000000000000e+00 0.0000000000000000e+00 8.2195574481869663e-05 -2.7706788357196557e-03 0.0000000000000000e+00 1.6206365787167101e-04 -5.5140703932525905e-03 0.0000000000000000e+00 2.3955749310628654e-04 -8.2299662673234204e-03 0.0000000000000000e+00 3.1462401296854426e-04 -1.0918154147465112e-02 0.0000000000000000e+00 3.8722458502897636e-04 -1.3578414455314682e-02 0.0000000000000000e+00 4.5731537865501942e-04 -1.6210524638710984e-02 0.0000000000000000e+00 5.2486580870163540e-04 -1.8814256011252091e-02 0.0000000000000000e+00 5.8984064052381563e-04 -2.1389377653598982e-02 0.0000000000000000e+00 6.5221683719258626e-04 -2.3935653557275460e-02 0.0000000000000000e+00 7.1196716145535916e-04 -2.6452846185164882e-02 0.0000000000000000e+00 7.6907575694736181e-04 -2.8940713924754450e-02 0.0000000000000000e+00 8.2352288444316045e-04 -3.1399014285917209e-02 0.0000000000000000e+00 8.7529933407965506e-04 -3.3827501553765862e-02 0.0000000000000000e+00 9.2439240646733083e-04 -3.6225929769999318e-02 0.0000000000000000e+00 9.7079927345234708e-04 -3.8594050619988655e-02 0.0000000000000000e+00 1.0145137541167034e-03 -4.0931616106566003e-02 0.0000000000000000e+00 1.0555389735805430e-03 -4.3238376598236150e-02 0.0000000000000000e+00 1.0938749038819197e-03 -4.5514083343320702e-02 0.0000000000000000e+00 1.1295303199087615e-03 -4.7758486688651597e-02 0.0000000000000000e+00 1.1625109873494191e-03 -4.9971338375099580e-02 0.0000000000000000e+00 1.1928310207996598e-03 -5.2152389862490003e-02 0.0000000000000000e+00 1.2205016011277209e-03 -5.4301394484305203e-02 0.0000000000000000e+00 1.2455419586031228e-03 -5.6418105954054061e-02 0.0000000000000000e+00 1.2679684304687656e-03 -5.8502280327282531e-02 0.0000000000000000e+00 1.2878050831643885e-03 -6.0553674573960353e-02 0.0000000000000000e+00 1.3050731053373258e-03 -6.2572048453653592e-02 0.0000000000000000e+00 1.3198011950219788e-03 -6.4557163184255514e-02 0.0000000000000000e+00 1.3320151576468686e-03 -6.6508783220244061e-02 0.0000000000000000e+00 1.3417480861118163e-03 -6.8426674959523787e-02 0.0000000000000000e+00 1.3490301821450818e-03 -7.0310608450533607e-02 0.0000000000000000e+00 1.3538987573420128e-03 -7.2160356185479127e-02 0.0000000000000000e+00 1.3563881820801412e-03 -7.3975694676050460e-02 0.0000000000000000e+00 1.3565397145402741e-03 -7.5756403335478936e-02 0.0000000000000000e+00 1.3543917159754958e-03 -7.7502265998907763e-02 0.0000000000000000e+00 1.3499892314869852e-03 -7.9213069817454143e-02 0.0000000000000000e+00 1.3433743522406941e-03 -8.0888606696433843e-02 0.0000000000000000e+00 1.3345956178500214e-03 -8.2528672241476225e-02 0.0000000000000000e+00 1.3236988555017180e-03 -8.4133067170241216e-02 0.0000000000000000e+00 1.3107356171871557e-03 -8.5701595882745382e-02 0.0000000000000000e+00 1.2957554343873622e-03 -8.7234067028567785e-02 0.0000000000000000e+00 1.4475116463209972e-03 -8.8705369392686514e-02 0.0000000000000000e+00 0.0000000000000000e+00 0.0000000000000000e+00 0.0000000000000000e+00 9.4033767713643036e-05 -2.7697191927695134e-03 0.0000000000000000e+00 1.8540057126778449e-04 -5.5121762244351316e-03 0.0000000000000000e+00 2.7404875863435303e-04 -8.2271606632109088e-03 0.0000000000000000e+00 3.5991573759969035e-04 -1.0914459517056786e-02 0.0000000000000000e+00 4.4295969065573962e-04 -1.3573851521816335e-02 0.0000000000000000e+00 5.2312880635316662e-04 -1.6205113461159066e-02 0.0000000000000000e+00 6.0039024347119450e-04 -1.8808015108148543e-02 0.0000000000000000e+00 6.7470222434750748e-04 -2.1382325013776501e-02 0.0000000000000000e+00 7.4604028222552605e-04 -2.3927805679731028e-02 0.0000000000000000e+00 8.1437203292533862e-04 -2.6444219310962865e-02 0.0000000000000000e+00 8.7968099009811198e-04 -2.8931322927847825e-02 0.0000000000000000e+00 9.4194346401100181e-04 -3.1388873899684637e-02 0.0000000000000000e+00 1.0011503827598014e-03 -3.3816625192321245e-02 0.0000000000000000e+00 1.0572862980271873e-03 -3.6214330970065878e-02 0.0000000000000000e+00 1.1103492073601087e-03 -3.8581741650578656e-02 0.0000000000000000e+00 1.1603312249976860e-03 -4.0918609477865110e-02 0.0000000000000000e+00 1.2072370075860493e-03 -4.3224683568261514e-02 0.0000000000000000e+00 1.2510658374727524e-03 -4.5499715645209327e-02 0.0000000000000000e+00 1.2918286665462863e-03 -4.7743454810152262e-02 0.0000000000000000e+00 1.3295314868387005e-03 -4.9955653404676358e-02 0.0000000000000000e+00 1.3641911995288236e-03 -5.2136061608259357e-02 0.0000000000000000e+00 1.3958201170418294e-03 -5.4284433560244164e-02 0.0000000000000000e+00 1.4244408727688467e-03 -5.6400521674193529e-02 0.0000000000000000e+00 1.4500717397768767e-03 -5.8484082911849852e-02 0.0000000000000000e+00 1.4727407475962485e-03 -6.0534872913406174e-02 0.0000000000000000e+00 1.4924718087797411e-03 -6.2552652477351575e-02 0.0000000000000000e+00 1.5092981443026428e-03 -6.4537181436073454e-02 0.0000000000000000e+00 1.5232490245231623e-03 -6.6488225405494233e-02 0.0000000000000000e+00 1.5343626023468836e-03 -6.8405549334581997e-02 0.0000000000000000e+00 1.5426732626849396e-03 -7.0288924574694350e-02 0.0000000000000000e+00 1.5482238697057690e-03 -7.2138122113085956e-02 0.0000000000000000e+00 1.5510536368291716e-03 -7.3952919849285384e-02 0.0000000000000000e+00 1.5512098991563624e-03 -7.5733095633049058e-02 0.0000000000000000e+00 1.5487365137775136e-03 -7.7478434812686223e-02 0.0000000000000000e+00 1.5436850247993470e-03 -7.9188722936505654e-02 0.0000000000000000e+00 1.5361036220379284e-03 -8.0863753530022051e-02 0.0000000000000000e+00 1.5260478279334794e-03 -8.2503320768743310e-02 0.0000000000000000e+00 1.5135697659984077e-03 -8.4107227034149301e-02 0.0000000000000000e+00 1.4987288113791286e-03 -8.5675277778995737e-02 0.0000000000000000e+00 1.4815807722473734e-03 -8.7207285001551754e-02 0.0000000000000000e+00 1.6293036429500139e-03 -8.8674930140292166e-02 0.0000000000000000e+00 0.0000000000000000e+00 0.0000000000000000e+00 0.0000000000000000e+00 1.0591027720766456e-04 -2.7686274136583811e-03 0.0000000000000000e+00 2.0881281159265767e-04 -5.5100209302519840e-03 0.0000000000000000e+00 3.0864701419483812e-04 -8.2239689788657436e-03 0.0000000000000000e+00 4.0534624915148704e-04 -1.0910256426373166e-02 0.0000000000000000e+00 4.9886056182140554e-04 -1.3568660944673076e-02 0.0000000000000000e+00 5.8913512258292034e-04 -1.6198957575080317e-02 0.0000000000000000e+00 6.7613034673761143e-04 -1.8800915240313576e-02 0.0000000000000000e+00 7.5980231863363213e-04 -2.1374300908664455e-02 0.0000000000000000e+00 8.4012123649100374e-04 -2.3918876546868272e-02 0.0000000000000000e+00 9.1705344270711329e-04 -2.6434402877739422e-02 0.0000000000000000e+00 9.9057830885578816e-04 -2.8920636528822215e-02 0.0000000000000000e+00 1.0606716590561510e-03 -3.1377333490974164e-02 0.0000000000000000e+00 1.1273215240200729e-03 -3.3804246643094199e-02 0.0000000000000000e+00 1.1905126950948022e-03 -3.6201128816181941e-02 0.0000000000000000e+00 1.2502412928514295e-03 -3.8567730465900681e-02 0.0000000000000000e+00 1.3065004242457457e-03 -4.0903802591447033e-02 0.0000000000000000e+00 1.3592939014699238e-03 -4.3209094599586696e-02 0.0000000000000000e+00 1.4086226556146424e-03 -4.5483356949754090e-02 0.0000000000000000e+00 1.4544977267162604e-03 -4.7726339192157172e-02 0.0000000000000000e+00 1.4969273805667516e-03 -4.9937792413694670e-02 0.00000