<?xml version='1.0' encoding='utf-8'?>
<VTKFile type="UnstructuredGrid" version="0.1" byte_order="LittleEndian"><UnstructuredGrid><Piece NumberOfPoints="4160" NumberOfCells="7996"><PointData><DataArray type="Float64" format="ascii" Name="pore_pressure">1.7903250000000000e+02 1.7810065716873606e+02 1.7716852291615223e+02 1.7623580665076653e+02 1.7530221942650292e+02 1.7436747473024096e+02 1.7343128922860100e+02 1.7249338346262519e+02 1.7155348248073992e+02 1.7061131640232617e+02 1.6966662090629197e+02 1.6871913764114950e+02 1.6776861455516990e+02 1.6681480614716168e+02 1.6585747364023791e+02 1.6489638508257016e+02 1.6393131538054462e+02 1.6296204627093630e+02 1.6198836623969839e+02 1.6101007039574554e+02 1.6002696030871778e+02 1.5903884382017779e+02 1.5804553483805662e+02 1.5704685312446429e+02 1.5604262408726240e+02 1.5503267858610013e+02 1.5401685276397944e+02 1.5299498791588448e+02 1.5196693040661313e+02 1.5093253165072358e+02 1.4989164816848449e+02 1.4884414173292092e+02 1.4778987962450938e+02 1.4672873501181513e+02 1.4566058747840697e+02 1.4458532371875091e+02 1.4350283842848705e+02 1.4241303541754712e+02 1.4131582897797517e+02 1.4021114554205735e+02 1.3909892567041939e+02 1.3797912641405281e+02 1.3685172409868261e+02 1.3571671758434084e+02 1.3457413205724211e+02 1.3342402341475744e+02 1.3226648330704217e+02 1.3110164490013483e+02 1.2992968942440942e+02 1.2875085356823919e+02 1.2756543776852466e+02 1.2637381543602812e+02 1.2517644313268217e+02 1.2397387168840315e+02 1.2276675820444648e+02 1.2155587883685496e+02 1.2034214218494503e+02 1.1912660302412480e+02 1.1791047601826325e+02 1.1669514892394790e+02 1.1548219465854393e+02 1.1427338144973743e+02 1.1307068012343380e+02 1.1187626743135783e+02 1.1069252418708918e+02 1.0952202689379530e+02 1.0836753153948438e+02 1.0723194834244609e+02 1.0611830648878697e+02 1.0502970834921992e+02 1.0396927331310152e+02 1.0294007222756653e+02 1.0194505443328887e+02 1.0098697045311729e+02 1.0006829437517293e+02 9.9191150703946818e+01 9.8357250754189778e+01 9.7567843394938080e+01 9.6823684059907293e+01 9.6125024483412645e+01 9.5471027345098989e+01 9.4861670010650570e+01 9.4295832538875402e+01 9.3772040226093893e+01 9.3288531323900912e+01 9.2843326887785182e+01 9.2434298322346095e+01 9.2059229239783974e+01 9.1715869435421581e+01 9.1401979901372584e+01 9.1115368716563864e+01 9.0853918314436697e+01 9.0615605043758961e+01 9.0398512142626615e+01 9.0200837294005368e+01 9.0020895875373910e+01 8.9857120899081920e+01 8.9708060496821375e+01 8.9572373653443435e+01 8.9448824755834465e+01 8.9336277398836160e+01 8.9233687785008229e+01 8.9140097968411567e+01 8.9054629123036264e+01 8.8976474961809060e+01 8.8904895389887798e+01 8.8839210443885719e+01 8.8778794544705605e+01 8.8723071074046942e+01 8.8671507271924156e+01 8.8623609443526377e+01 8.8578918457527578e+01 8.8537005513791939e+01 8.8497468155750184e+01 8.8459926501117494e+01 8.8424019663756397e+01 8.8389402339112692e+01 8.8355741525586993e+01 8.8322713354313080e+01 8.8290000000000006e+01 1.7430267857142857e+02 1.7337097148512848e+02 1.7243897259096744e+02 1.7150639091756929e+02 1.7057293715201479e+02 1.6963832443332888e+02 1.6870226910454704e+02 1.6776449141187564e+02 1.6682471614122829e+02 1.6588267318440734e+02 1.6493809802930565e+02 1.6399073217064819e+02 1.6304032343989280e+02 1.6208662625490655e+02 1.6112940179187126e+02 1.6016841808351407e+02 1.5920345004918255e+02 1.5823427946347996e+02 1.5726069487115157e+02 1.5628249145668210e+02 1.5529947087765649e+02 1.5431144107138527e+02 1.5331821604463801e+02 1.5231961565661069e+02 1.5131546540551420e+02 1.5030559622945498e+02 1.4928984433262792e+02 1.4826805104829151e+02 1.4724006275058443e+02 1.4620573082800331e+02 1.4516491173232225e+02 1.4411746711792853e+02 1.4306326408799669e+02 1.4200217556565335e+02 1.4093408081031791e+02 1.3985886610176266e+02 1.3877642561713398e+02 1.3768666252922841e+02 1.3658949035772810e+02 1.3548483460885703e+02 1.3437263474300181e+02 1.3325284651418673e+02 1.3212544472981713e+02 1.3099042648365776e+02 1.2984781491938841e+02 1.2869766358597425e+02 1.2754006144910099e+02 1.2637513862451760e+02 1.2520307289860637e+02 1.2402409709798658e+02 1.2283850736236901e+02 1.2164667236189381e+02 1.2044904348024698e+02 1.1924616595614442e+02 1.1803869093627118e+02 1.1682738834027133e+02 1.1561316037067154e+02 1.1439705541561541e+02 1.1318028198838739e+02 1.1196422222423514e+02 1.1075044431283490e+02 1.0954071308714678e+02 1.0833699782306971e+02 1.0714147614056890e+02 1.0595653275305231e+02 1.0478475171190931e+02 1.0362890076880096e+02 1.0249190656738340e+02 1.0137681961972602e+02 1.0028676845882322e+02 9.9224903012488070e+01 9.8194328114826476e+01 9.7198029118388078e+01 9.6238792700218042e+01 9.5319127021425359e+01 9.4441186214426565e+01 9.3606704537559509e+01 9.2816945294916252e+01 9.2072668701252709e+01 9.1374121333746729e+01 9.0720451824041717e+01 9.0111615176537825e+01 8.9546463329113692e+01 8.9023490094512866e+01 8.8540901250067819e+01 8.8096686447910628e+01 8.7688688333176898e+01 8.7314665423580138e+01 8.6972346586532268e+01 8.6659476128033177e+01 8.6373849449615619e+01 8.6113339890440116e+01 8.5875917767356796e+01 8.5659662805712983e+01 8.5462771177638913e+01 8.5283558288342348e+01 8.5120458319701228e+01 8.4972021386856184e+01 8.4836909009013851e+01 8.4713888452833714e+01 8.4601826381762692e+01 8.4499682139484264e+01 8.4406500909725096e+01 8.4321406926133236e+01 8.4243596852367716e+01 8.4172333411383278e+01 8.4106939311785439e+01 8.4046791495986128e+01 8.3991315717948311e+01 8.3939981446129806e+01 8.3892297078661031e+01 8.3847805451909053e+01 8.3806079619677888e+01 8.3766718877825937e+01 8.3729345007628339e+01 8.3693598710458588e+01 8.3659136206073768e+01 8.3625625966784952e+01 8.3592745559948014e+01 8.3560178571428565e+01 1.6957285714285715e+02 1.6864155765155274e+02 1.6770996518657176e+02 1.6677778763088966e+02 1.6584473456552627e+02 1.6491051808102188e+02 1.6397485354548542e+02 1.6303746031728591e+02 1.6209806239236605e+02 1.6115638897827429e+02 1.6021217498923917e+02 1.5926516145886077e+02 1.5831509586918352e+02 1.5736173239698485e+02 1.5640483208000296e+02 1.5544416290750257e+02 1.5447949984101211e+02 1.5351062477225560e+02 1.5253732642625425e+02 1.5155940021830477e+02 1.5057664807408642e+02 1.4958887822254297e+02 1.4859590497147138e+02 1.4759754847596932e+02 1.4659363451009762e+02 1.4558399425233992e+02 1.4456846409573717e+02 1.4354688549397423e+02 1.4251910485523931e+02 1.4148497349639339e+02 1.4044434767091005e+02 1.3939708868520148e+02 1.3834306311936098e+02 1.3728214317005003e+02 1.3621420713526402e+02 1.3513914006304316e+02 1.3405683458887904e+02 1.3296719198961401e+02 1.3187012348505382e+02 1.3076555182231272e+02 1.2965341318206836e+02 1.2853365945038391e+02 1.2740626090448185e+02 1.2627120936570768e+02 1.2512852187771630e+02 1.2397824497238234e+02 1.2282045958970399e+02 1.2165528672053684e+02 1.2048289384170221e+02 1.1930350221102270e+02 1.1811739508408928e+02 1.1692492690376504e+02 1.1572653349601299e+02 1.1452274327975486e+02 1.1331418946200007e+02 1.1210162314006459e+02 1.1088592716781085e+02 1.0966813055997019e+02 1.0844942310551814e+02 1.0723116973619987e+02 1.0601492404935884e+02 1.0480244021702160e+02 1.0359568233076594e+02 1.0239683004388611e+02 1.0120827919465493e+02 1.0003263595087181e+02 9.8872702939396888e+01 9.7731455857440778e+01 9.6612009254843386e+01 9.5517570580115773e+01 9.4451382240655150e+01 9.3416652357724587e+01 9.2416476073328141e+01 9.1453750598553640e+01 9.0531088515655085e+01 8.9650734926948630e+01 8.8814494620963217e+01 8.8023675274098082e+01 8.7279051708957766e+01 8.6580854438664915e+01 8.5928188603310232e+01 8.5320940164799865e+01 8.4757874465336428e+01 8.4237388661371199e+01 8.3757589190484879e+01 8.3316370032102796e+01 8.2911486603516835e+01 8.2540621672569998e+01 8.2201441252997469e+01 8.1891639809184312e+01 8.1608975106229281e+01 8.1351293684669031e+01 8.1116548270687559e+01 8.0902808532355010e+01 8.0708266540138837e+01 8.0531238151364605e+01 8.0370161361372396e+01 8.0223592480211195e+01 8.0090200821227455e+01 7.9968762436000645e+01 7.9858153301947112e+01 7.9757342264207040e+01 7.9665383949946815e+01 7.9581411807975869e+01 7.9504631376475615e+01 7.9434313843757778e+01 7.9369789938755190e+01 7.9310444167256264e+01 7.9255709394969728e+01 7.9205061767949047e+01 7.9158015953613884e+01 7.9114120680722081e+01 7.9072954553514776e+01 7.9034122113376156e+01 7.8997250120341633e+01 7.8961984026369649e+01 7.8927984612250441e+01 7.8894924760205640e+01 7.8862486334519829e+01 7.8830357142857153e+01 1.6484303571428572e+02 1.6391241675408995e+02 1.6298150285633960e+02 1.6204999997451532e+02 1.6111761582759976e+02 1.6018406074213033e+02 1.5924904844734118e+02 1.5831229681072276e+02 1.5737352850347520e+02 1.5643247158767835e+02 1.5548886001943083e+02 1.5454243406464124e+02 1.5359294062649670e+02 1.5264013348582603e+02 1.5168377345755235e+02 1.5072362846815912e+02 1.4975947356054630e+02 1.4879109083382994e+02 1.4781826932654727e+02 1.4684080485239622e+02 1.4585849979810268e+02 1.4487116289330703e+02 1.4387860896254907e+02 1.4288065866954895e+02 1.4187713826408452e+02 1.4086787934189667e+02 1.3985271862825888e+02 1.3883149779616377e+02 1.3780406333054498e+02 1.3677026645059900e+02 1.3572996310312882e+02 1.3468301404092665e+02 1.3362928500156841e+02 1.3256864700364002e+02 1.3150097677936949e+02 1.3042615736493181e+02 1.2934407887234460e+02 1.2825463946990530e+02 1.2715774660155770e+02 1.2605331847942719e+02 1.2494128588803881e+02 1.2382159434341072e+02 1.2269420665526201e+02 1.2155910594589736e+02 1.2041629918479791e+02 1.1926582130333465e+02 1.1810773995901201e+02 1.1694216102280483e+02 1.1576923486587285e+02 1.1458916352245009e+02 1.1340220880300856e+02 1.1220870142463713e+02 1.1100905121240115e+02 1.0980375840436963e+02 1.0859342606176718e+02 1.0737877354170557e+02 1.0616065093022611e+02 1.0494005425473578e+02 1.0371814119409279e+02 1.0249624687858812e+02 1.0127589921865423e+02 1.0005883301964644e+02 9.8847001932544970e+01 9.7642587063338169e+01 9.6448000830139577e+01 9.5265884438971298e+01 9.4099097180961920e+01 9.2950695684319768e+01 9.1823901347650661e+01 9.0722054512049183e+01 8.9648554573591454e+01 8.8606786251705984e+01 8.7600033619347229e+01 8.6631385189969350e+01 8.5703635151578709e+01 8.4819187428861781e+01 8.3979970254230167e+01 8.3187368973549567e+01 8.2442183689462937e+01 8.1744616092242254e+01 8.1093694155155902e+01 8.0489181968412396e+01 7.9929692816076781e+01 7.9413455165966084e+01 7.8938403345422898e+01 7.8502266949175862e+01 7.8102652877965269e+01 7.7737116175651877e+01 7.7403217968788425e+01 7.7098570474920166e+01 7.6820870135117431e+01 7.6567920502463124e+01 7.6337646710819229e+01 7.6128103293539354e+01 7.5937476932091343e+01 7.5764085469090830e+01 7.5606374268429008e+01 7.5462910773862902e+01 7.5332377918429842e+01 7.5213566873114871e+01 7.5105369492268650e+01 7.5006770711102263e+01 7.4916841072312849e+01 7.4834729499852742e+01 7.4759656393935060e+01 7.4690907089136843e+01 7.4627825694137982e+01 7.4569809315024102e+01 7.4516302652477336e+01 7.4466792955268616e+01 7.4420805307250120e+01 7.4377898221774899e+01 7.4337659515574828e+01 7.4299702433187989e+01 7.4263661992727620e+01 7.4229191523897200e+01 7.4195959369508429e+01 7.4163645722228736e+01 7.4131939568781902e+01 7.4100535714285726e+01 1.6011321428571432e+02 1.5918355062230120e+02 1.5825358922736143e+02 1.5732303331022229e+02 1.5639158794336751e+02 1.5545896094857224e+02 1.5452486373094436e+02 1.5358901204715471e+02 1.5265112669664995e+02 1.5171093412731358e+02 1.5076816694976085e+02 1.4982256435713686e+02 1.4887387244984777e+02 1.4792184446702146e+02 1.4696624092859835e+02 1.4600682969375634e+02 1.4504338594285002e+02 1.4407569209119455e+02 1.4310353764386889e+02 1.4212671900128083e+02 1.4114503922557773e+02 1.4015830777814892e+02 1.3916634023850662e+02 1.3816895801480422e+02 1.3716598805621015e+02 1.3615726257735045e+02 1.3514261880510975e+02 1.3412189875828028e+02 1.3309494907090658e+02 1.3206162087072141e+02 1.3102176972483588e+02 1.2997525566585560e+02 1.2892194331287322e+02 1.2786170210335624e+02 1.2679440665383345e+02 1.2571993726951199e+02 1.2463818062555384e+02 1.2354903064574229e+02 1.2245238960770369e+02 1.2134816950775406e+02 1.2023629372284043e+02 1.1911669901196748e+02 1.1798933790493885e+02 1.1685418153217138e+02 1.1571122295567982e+02 1.1456048106793212e+02 1.1340200513190169e+02 1.1223588004193974e+02 1.1106223239055203e+02 1.0988123743010973e+02 1.0869312702004767e+02 1.0749819864803015e+02 1.0629682560639047e+02 1.0508946839096981e+02 1.0387668736592664e+02 1.0265915670225598e+02 1.0143767954617707e+02 1.0021320430215842e+02 9.8986841819579141e+01 9.7759883146954877e+01 9.6533817358388319e+01 9.5310348759214705e+01 9.4091412539261256e+01 9.2879187663895991e+01 9.1676105482649305e+01 9.0484852210563346e+01 8.9308363132027040e+01 8.8149806145571389e+01 8.7012552192135431e+01 8.5900130296973970e+01 8.4816165533689997e+01 8.3764299309906278e+01 8.2748093051097868e+01 8.1770918584060766e+01 8.0835841078876399e+01 7.9945502868751547e+01 7.9102018228584257e+01 7.8306889633452400e+01 7.7560954734498196e+01 7.6864370299882765e+01 7.6216045742715949e+01 7.5615559241306343e+01 7.5061293889875856e+01 7.4551225153016688e+01 7.4083032112207960e+01 7.3654203694116845e+01 7.3262132415263125e+01 7.2904191720592152e+01 7.2577795998643822e+01 7.2280444411939484e+01 7.2009750794731076e+01 7.1763462258909513e+01 7.1539469075808867e+01 7.1335808088267768e+01 7.1150661506482308e+01 7.0982352542882211e+01 7.0829338989587939e+01 7.0690205552300341e+01 7.0563655526377005e+01 7.0448502226813616e+01 7.0343660454061379e+01 7.0248138182496433e+01 7.0161028589635421e+01 7.0081502495161473e+01 7.0008801244282139e+01 6.9942230045939723e+01 6.9881151760005281e+01 6.9824981116647237e+01 6.9773179344000994e+01 6.9725249175930443e+01 6.9680730209235776e+01 6.9639194578527196e+01 6.9600242916716709e+01 6.9563500569371755e+01 6.9528614031799535e+01 6.9495247578531959e+01 6.9463080055742822e+01 6.9431801807971013e+01 6.9401111711290113e+01 6.9370714285714286e+01 1.5538339285714287e+02 1.5445496185906831e+02 1.5352622945898966e+02 1.5259689526285783e+02 1.5166666087112904e+02 1.5073523082381777e+02 1.4980231348621780e+02 1.4886762186024197e+02 1.4793087430934594e+02 1.4699179518809635e+02 1.4605011537053875e+02 1.4510557267453297e+02 1.4415791218207414e+02 1.4320688645821633e+02 1.4225225567348824e+02 1.4129378763658798e+02 1.4033125774564394e+02 1.3936444886743678e+02 1.3839315115472408e+02 1.3741716181223666e+02 1.3643628482208763e+02 1.3545033063930771e+02 1.3445911586806449e+02 1.3346246292889882e+02 1.3246019972708089e+02 1.3145215933200362e+02 1.3043817967744309e+02 1.2941810329256447e+02 1.2839177707377283e+02 1.2735905210793292e+02 1.2631978355813368e+02 1.2527383062407688e+02 1.2422105659034386e+02 1.2316132897726564e+02 1.2209451981090967e+02 1.2102050603083366e+02 1.1993917005677284e+02 1.1885040053836461e+02 1.1775409331541853e+02 1.1665015262016604e+02 1.1553849255743468e+02 1.1441903890384927e+02 1.1329173127302532e+02 1.1215652570032552e+02 1.1101339770810034e+02 1.0986234592037346e+02 1.0870339630452567e+02 1.0753660712643735e+02 1.0636207471438671e+02 1.0517994013522251e+02 1.0399039689316773e+02 1.0279369976602729e+02 1.0159017489417263e+02 1.0038023123260142e+02 9.9164373463193996e+01 9.7943216439863761e+01 9.6717501199639557e+01 9.5488112512850066e+01 9.4256097859447337e+01 9.3022687598938404e+01 9.1789315940209221e+01 9.0557642105900328e+01 8.9329570815304066e+01 8.8107270873322335e+01 8.6893190249261707e+01 8.5690065566928013e+01 8.4500923433742386e+01 8.3329070567771183e+01 8.2178069335527127e+01 8.1051695239521422e+01 7.9953873293251831e+01 7.8888591321280359e+01 7.7859790221050346e+01 7.6871234184698977e+01 7.5926367598547898e+01 7.5028169229271455e+01 7.4179017408370967e+01 7.3380581137734850e+01 7.2633750577711822e+01 7.1938616242097211e+01 7.1293915260573200e+01 7.0698957919385535e+01 7.0151798876911585e+01 6.9650057152285669e+01 6.9191057805063011e+01 6.8771961925659809e+01 6.8389875733340034e+01 6.8041935269212530e+01 6.7725367428253193e+01 6.7437530517629042e+01 6.7175938464126602e+01 6.6938272749879474e+01 6.6722385610998856e+01 6.6526297319481060e+01 6.6348189673147346e+01 6.6186397226223406e+01 6.6039397327368221e+01 6.5905799684201384e+01 6.5784335923206314e+01 6.5673849438872921e+01 6.5573285706204175e+01 6.5481683150350889e+01 6.5398164614197555e+01 6.5321929430546163e+01 6.5252246084043236e+01 6.5188445434955071e+01 6.5129914469446334e+01 6.5076090537213091e+01 6.5026456035861798e+01 6.4980533501435332e+01 6.4937881065387458e+01 6.4898088239709722e+01 6.4860771993566033e+01 6.4825573086519398e+01 6.4792152625134079e+01 6.4760188811331560e+01 6.4729373852324599e+01 6.4699411003221869e+01 6.4670011714467208e+01 6.4640892857142859e+01 1.5065357142857144e+02 1.4972665388383106e+02 1.4879943032759212e+02 1.4787159584335234e+02 1.4694284767912353e+02 1.4601288626801608e+02 1.4508141617966027e+02 1.4414814698586792e+02 1.4321279402759353e+02 1.4227507907385632e+02 1.4133473086681860e+02 1.4039148555064168e+02 1.3944508698495920e+02 1.3849528694670823e+02 1.3754184522654700e+02 1.3658452962809955e+02 1.3562311587978542e+02 1.3465738747003272e+02 1.3368713541727649e+02 1.3271215798638138e+02 1.3173226036306752e+02 1.3074725429764320e+02 1.2975695772893593e+02 1.2876119439883573e+02 1.2775979346739356e+02 1.2675258913800840e+02 1.2573942030194456e+02 1.2472013021128524e+02 1.2369456618948561e+02 1.2266257938896479e+02 1.2162402460569201e+02 1.2057876016149940e+02 1.1952664786590556e+02 1.1846755307058356e+02 1.1740134483127360e+02 1.1632789619395447e+02 1.1524708462448649e+02 1.1415879260376772e+02 1.1306290841376746e+02 1.1195932714369300e+02 1.1084795195010534e+02 1.0972869561014167e+02 1.0860148241325403e+02 1.0746625044415356e+02 1.0632295431806297e+02 1.0517156843898221e+02 1.0401209086245781e+02 1.0284454785621550e+02 1.0166899926474164e+02 1.0048554479710891e+02 9.9294331370461762e+01 9.8095561653784728e+01 9.6889503966676642e+01 9.5676503694152686e+01 9.4456996378622435e+01 9.3231522640892976e+01 9.2000745058941092e+01 9.0765467090493601e+01 8.9526654055640961e+01 8.8285456089262013e+01 8.7043232818161172e+01 8.5801579300288708e+01 8.4562352466812740e+01 8.3327696914668820e+01 8.2100068391908337e+01 8.0882252692887789e+01 7.9677376945781447e+01 7.8488909477328690e+01 7.7320643684478725e+01 7.6176660820459020e+01 7.5061266608853089e+01 7.3978897523940873e+01 7.2933994837306798e+01 7.1930848419760466e+01 7.0973417714943011e+01 7.0065143517985092e+01 6.9208769663733761e+01 6.8406196438634524e+01 6.7658385894323729e+01 6.6965333238821756e+01 6.6325530806740176e+01 6.5737911495727062e+01 6.5200072709978940e+01 6.4709145282770265e+01 6.4261979380519634e+01 6.3855306812963171e+01 6.3485868750585077e+01 6.3150507080218667e+01 6.2846223490242203e+01 6.2570212923265373e+01 6.2319878300209474e+01 6.2092832499213976e+01 6.1886892248577226e+01 6.1700067302812755e+01 6.1530547201585719e+01 6.1376687104026168e+01 6.1236993618724028e+01 6.1110111162909561e+01 6.0994809132935657e+01 6.0889970010672634e+01 6.0794578435517295e+01 6.0707711217234340e+01 6.0628528235731707e+01 6.0556264160215008e+01 6.0490220915621457e+01 6.0429760824825799e+01 6.0374300358405442e+01 6.0323304428298158e+01 6.0276281166640707e+01 6.0232777135973429e+01 6.0192372921590362e+01 6.0154679060993878e+01 6.0119332269137615e+01 6.0085991921413083e+01 6.0054336759172891e+01 6.0024061785016400e+01 5.9994875317120425e+01 5.9966496173608270e+01 5.9938650959337266e+01 5.9911071428571439e+01 1.4592375000000001e+02 1.4499863099082344e+02 1.4407320034054840e+02 1.4314714761384994e+02 1.4222016475551274e+02 1.4129194720539272e+02 1.4036219493100120e+02 1.3943061335954278e+02 1.3849691419561523e+02 1.3756081611489174e+02 1.3662204532812655e+02 1.3568033601374896e+02 1.3473543062100364e+02 1.3378708004888747e+02 1.3283504370889204e+02 1.3187908948170698e+02 1.3091899357955995e+02 1.2995454032679712e+02 1.2898552187171356e+02 1.2801173784261474e+02 1.2703299496072840e+02 1.2604910662198886e+02 1.2505989245897725e+02 1.2406517789350960e+02 1.2306479368959560e+02 1.2205857551581029e+02 1.2104636352558465e+02 1.2002800196357045e+02 1.1900333880610197e+02 1.1797222544388518e+02 1.1693451641540786e+02 1.1589006920019783e+02 1.1483874408196824e+02 1.1378040409289548e+02 1.1271491505179321e+02 1.1164214571080332e+02 1.1056196802745995e+02 1.0947425758164810e+02 1.0837889416014553e+02 1.0727576253520378e+02 1.0616475346812530e+02 1.0504576497420429e+02 1.0391870389192405e+02 1.0278348780716578e+02 1.0164004739260386e+02 1.0048832923363425e+02 9.9328299225255392e+01 9.8159946639360513e+01 9.6983288978866582e+01 9.5798377753832952e+01 9.4605305334897423e+01 9.3404213060464130e+01 9.2195300795258262e+01 9.0978838157743553e+01 8.9755177650358860e+01 8.8524769936435177e+01 8.7288181506502625e+01 8.6046114958151875e+01 8.4799432068989091e+01 8.3549179759889356e+01 8.2296618910435342e+01 8.1043255780287012e+01 7.9790875483987563e+01 7.8541576531408381e+01 7.7297804846469035e+01 7.6062384878558959e+01 7.4838544402608079e+01 7.3629928379305312e+01 7.2440595904768514e+01 7.1274993033663549e+01 7.0137893509481913e+01 6.9034299795190677e+01 6.7969299051624787e+01 6.6947873610376419e+01 6.5974673320587939e+01 6.5053767122211354e+01 6.4188400915848860e+01 6.3380794482953604e+01 6.2632008418593280e+01 6.1941902626133029e+01 6.1308624037525902e+01 6.0730576803040279e+01 6.0204726159914557e+01 5.9727541893236470e+01 5.9295248352670029e+01 5.8904029309609619e+01 5.8550175939033572e+01 5.8230181033311155e+01 5.7940789968345086e+01 5.7679020631046662e+01 5.7442163096391766e+01 5.7227767317156228e+01 5.7033624578436353e+01 5.6857746429425305e+01 5.6698343323552649e+01 5.6553804200788555e+01 5.6422677613528137e+01 5.6303654618100161e+01 5.6195553439959333e+01 5.6097305809715323e+01 5.6007944817687587e+01 5.5926594120070767e+01 5.5852458333715184e+01 5.5784814469293302e+01 5.5723004268731984e+01 5.5666427329276118e+01 5.5614534911940787e+01 5.5566824345786372e+01 5.5522833951256565e+01 5.5482138415828857e+01 5.5444344563621812e+01 5.5409087467594837e+01 5.5376026858775489e+01 5.5344843791742868e+01 5.5315237529547154e+01 5.5286922614487047e+01 5.5259626093809366e+01 5.5233084871524234e+01 5.5207043159213349e+01 5.5181250000000006e+01 1.4119392857142859e+02 1.4027089842461604e+02 1.3934754988379882e+02 1.3842356590081062e+02 1.3749863207850376e+02 1.3657243790151767e+02 1.3564467786695249e+02 1.3471505249563131e+02 1.3378326920955632e+02 1.3284904306562356e+02 1.3191209734017181e+02 1.3097216396349114e+02 1.3002898380773840e+02 1.2908230683551909e+02 1.2813189211949350e+02 1.2717750774566188e+02 1.2621893061447250e+02 1.2525594615465035e+02 1.2428834796476573e+02 1.2331593739717847e+02 1.2233852309823656e+02 1.2135592051759947e+02 1.2036795139841367e+02 1.1937444325888761e+02 1.1837522887468702e+02 1.1737014577056692e+02 1.1635903572883791e+02 1.1534174432166837e+02 1.1431812047388063e+02 1.1328801606282414e+02 1.1225128556210724e+02 1.1120778573644813e+02 1.1015737539566555e+02 1.0909991521687604e+02 1.0803526764530851e+02 1.0696329688581140e+02 1.0588386899915145e+02 1.0479685211963761e+02 1.0370211681352527e+02 1.0259953660117138e+02 1.0148898867019304e+02 1.0037035481216748e+02 9.9243522622004136e+01 9.8108387007359056e+01 9.6964852065705585e+01 9.5812833399280294e+01 9.4652260953418505e+01 9.3483082482043869e+01 9.2305267765435858e+01 9.1118813729936321e+01 8.9923750646969438e+01 8.8720149619549503e+01 8.7508131597995501e+01 8.6287878202009153e+01 8.5059644661986880e+01 8.3823775225741343e+01 8.2580721403509926e+01 8.1331063437837912e+01 8.0075535376317490e+01 7.8815054081176712e+01 7.7550752412431692e+01 7.6284016646113017e+01 7.5016527902044047e+01 7.3750306910979262e+01 7.2487760789111093e+01 7.1231729536960614e+01 6.9985528663947107e+01 6.8752982606415557e+01 6.7538441477804952e+01 6.6346771350264419e+01 6.5183306187660179e+01 6.4053748613078568e+01 6.2964008241248848e+01 6.1919971947700276e+01 6.0927211422984314e+01 5.9990649321848402e+01 5.9114222801063178e+01 5.8300595103360884e+01 5.7550964033853937e+01 5.6864999380190277e+01 5.6240360562757324e+01 5.5674707269662989e+01 5.5164127328689062e+01 5.4704196999448342e+01 5.4290324329052723e+01 5.3918007450081177e+01 5.3582999937586273e+01 5.3281398098761606e+01 5.3009672467532511e+01 5.2764664175400490e+01 5.2543561898057852e+01 5.2343869907374092e+01 5.2163373635466748e+01 5.2000106287609434e+01 5.1852318216328072e+01 5.1718449692471637e+01 5.1597107120518679e+01 5.1487042454920456e+01 5.1387135455635082e+01 5.1296378395416596e+01 5.1213862852121210e+01 5.1138768259757398e+01 5.1070351937961838e+01 5.1007940363889020e+01 5.0950921490023802e+01 5.0898737945173032e+01 5.0850880983957140e+01 5.0806885073077751e+01 5.0766323021222632e+01 5.0728801574424274e+01 5.0693957410684796e+01 5.0661453477289747e+01 5.0630975621930546e+01 5.0602229474922005e+01 5.0574937544740479e+01 5.0548836493058730e+01 5.0523674558600135e+01 5.0499209101619783e+01 5.0475204242752568e+01 5.0451428571428572e+01 1.3646410714285713e+02 1.3554346247625855e+02 1.3462249140895761e+02 1.3370086906403256e+02 1.3277827355581164e+02 1.3185438736037540e+02 1.3092889856231443e+02 1.3000150195862656e+02 1.2907190000518537e+02 1.2813980359554014e+02 1.2720493266682340e+02 1.2626701663296198e+02 1.2532579465060549e+02 1.2438101572770238e+02 1.2343243868818205e+02 1.2247983200864427e+02 1.2152297354435686e+02 1.2056165016234068e+02 1.1959565729904131e+02 1.1862479845922697e+02 1.1764888467148316e+02 1.1666773391415032e+02 1.1568117052390805e+02 1.1468902459756133e+02 1.1369113139603050e+02 1.1268733075816642e+02 1.1167746653086972e+02 1.1066138602112703e+02 1.0963893947500947e+02 1.0860997958841166e+02 1.0757436105434124e+02 1.0653194015189065e+02 1.0548257438262635e+02 1.0442612216100680e+02 1.0336244256658809e+02 1.0229139516721283e+02 1.0121283992414034e+02 1.0012663719221207e+02 9.9032647830717977e+01 9.7930733443737438e+01 9.6820756772566611e+01 9.5702582267723201e+01 9.4576076874362940e+01 9.3441111073225841e+01 9.2297560229966152e+01 9.1145306319449674e+01 8.9984240108877103e+01 8.8814263904903754e+01 8.7635294995620796e+01 8.6447269948606930e+01 8.5250149961595014e+01 8.4043927503113380e+01 8.2828634527159025e+01 8.1604352598464416e+01 8.0371225322385087e+01 7.9129473534051272e+01 7.7879413761929911e+01 7.6621480535599943e+01 7.5356253147124946e+01 7.4084487486453241e+01 7.2807153534980387e+01 7.1525478990729539e+01 7.0240999273457746e+01 6.8955613759378807e+01 6.7671647438300198e+01 6.6391916152558380e+01 6.5119792013618351e+01 6.3859263328919177e+01 6.2614980282928521e+01 6.1392273744790529e+01 6.0197130344362272e+01 5.9036103475377217e+01 5.7916139225151802e+01 5.6844301457471559e+01 5.5827394721818656e+01 5.4871508838004573e+01 5.3981540909178662e+01 5.3160776063920828e+01 5.2410607617163627e+01 5.1730442127485098e+01 5.1117249578750418e+01 5.0567627948408429e+01 5.0076432111043282e+01 4.9638025532575938e+01 4.9246759779991365e+01 4.8897293590346777e+01 4.8584761772738979e+01 4.8304834864037083e+01 4.8053711930748293e+01 4.7828078785084081e+01 4.7625052410215886e+01 4.7442123417250116e+01 4.7277102430210810e+01 4.7128072787854947e+01 4.6993350060541296e+01 4.6871447966122020e+01 4.6761049900809468e+01 4.6660985216814645e+01 4.6570209428479508e+01 4.6487787631836071e+01 4.6412880538048285e+01 4.6344732629999839e+01 4.6282662045920375e+01 4.6226051872704964e+01 4.6174342595433551e+01 4.6127025500521711e+01 4.6083636870137632e+01 4.6043752837067217e+01 4.6006984793884641e+01 4.5972975269563143e+01 4.5941394201725991e+01 4.5911935544525292e+01 4.5884314161376892e+01 4.5858262959036239e+01 4.5833530225206317e+01 4.5809877136355318e+01 4.5787075405939831e+01 4.5764905045969833e+01 4.5743152216956304e+01 4.5721607142857145e+01 1.3173428571428573e+02 1.3081633060484066e+02 1.2989803966843215e+02 1.2897907883227904e+02 1.2805911744541714e+02 1.2713782981388069e+02 1.2621489658135322e+02 1.2529000593927131e+02 1.2436285465184504e+02 1.2343314888480963e+02 1.2250060483250923e+02 1.2156494914476689e+02 1.2062591916157459e+02 1.1968326296912630e+02 1.1873673929476169e+02 1.1778611726094226e+02 1.1683117601957575e+02 1.1587170428805472e+02 1.1490749980752979e+02 1.1393836874244226e+02 1.1296412503841519e+02 1.1198458975343665e+02 1.1099959037501904e+02 1.1000896013381059e+02 1.0901253732207965e+02 1.0801016462367751e+02 1.0700168846058116e+02 1.0598695835996388e+02 1.0496582634494409e+02 1.0393814635170958e+02 1.0290377367558375e+02 1.0186256444877530e+02 1.0081437515300696e+02 9.9759062170925972e+01 9.8696481381133879e+01 9.7626487802848828e+01 9.6548935297668550e+01 9.5463676337683268e+01 9.4370561851314250e+01 9.3269441160775699e+01 9.2160162028159462e+01 9.1042570831224879e+01 8.9916512895621949e+01 8.8781833018130243e+01 8.7638376226218952e+01 8.6485988833571653e+01 8.5324519870020367e+01 8.4153822988380838e+01 8.2973758980464154e+01 8.1784199070371130e+01 8.0585029195680377e+01 7.9376155537593263e+01 7.8157511621022593e+01 7.6929067375970718e+01 7.5690840632443170e+01 7.4442911612117840e+01 7.3185441079627864e+01 7.1918692920523554e+01 7.0643062013281479e+01 6.9359108346332590e+01 6.8067598380960419e+01 6.6769554652110358e+01 6.5466314490852966e+01 6.4159598478686178e+01 6.2851588702031648e+01 6.1545015902527091e+01 6.0243252965458481e+01 5.8950409512602285e+01 5.7671418278132172e+01 5.6412098147508011e+01 5.5179171326588275e+01 5.3980204144729683e+01 5.2823435276341812e+01 5.1717456873593164e+01 5.0670730612706457e+01 4.9690958774233657e+01 4.8784388990996483e+01 4.7955188977261052e+01 4.7205036007000970e+01 4.6532982544870556e+01 4.5935027370880917e+01 4.5406221582408811e+01 4.4939650962611154e+01 4.4528020313065085e+01 4.4164328035288101e+01 4.3842236417838393e+01 4.3556206033156471e+01 4.3301488340950129e+01 4.3074049792971330e+01 4.2870472558147398e+01 4.2687855433334562e+01 4.2523725222635846e+01 4.2375961722054086e+01 4.224273