<?xml version='1.0' encoding='utf-8'?>
<VTKFile type="UnstructuredGrid" version="0.1" byte_order="LittleEndian"><UnstructuredGrid><Piece NumberOfPoints="17913" NumberOfCells="8772"><PointData><DataArray type="Float64" format="ascii" Name="displacement" NumberOfComponents="3">0.0000000000000000e+00 0.0000000000000000e+00 0.0000000000000000e+00 0.0000000000000000e+00 -7.5095624320785622e-03 0.0000000000000000e+00 -2.6992151390895891e-05 -5.1374478995545036e-03 0.0000000000000000e+00 0.0000000000000000e+00 0.0000000000000000e+00 0.0000000000000000e+00 0.0000000000000000e+00 -1.4656461305105261e-02 0.0000000000000000e+00 0.0000000000000000e+00 -2.1451486215688310e-02 0.0000000000000000e+00 -5.7371603820954476e-05 -1.1194683876365035e-02 0.0000000000000000e+00 -6.9786434997647385e-05 -6.6600870154241631e-03 0.0000000000000000e+00 0.0000000000000000e+00 0.0000000000000000e+00 0.0000000000000000e+00 0.0000000000000000e+00 -8.3194581134330592e-02 0.0000000000000000e+00 0.0000000000000000e+00 -2.7899748368347958e-02 0.0000000000000000e+00 0.0000000000000000e+00 -3.4004697320098282e-02 0.0000000000000000e+00 -8.6280996615773178e-05 -1.8142305691309986e-02 0.0000000000000000e+00 -1.1337952319733582e-04 -2.4788807945528880e-02 0.0000000000000000e+00 -1.3502657138323533e-04 -1.4559724527769860e-02 0.0000000000000000e+00 -1.5275298870240326e-04 -1.1453407855634251e-02 0.0000000000000000e+00 -9.6693096268208687e-05 -6.0783402836291243e-03 0.0000000000000000e+00 0.0000000000000000e+00 0.0000000000000000e+00 0.0000000000000000e+00 0.0000000000000000e+00 -8.2203653938746915e-02 0.0000000000000000e+00 0.0000000000000000e+00 -8.3047171188643965e-02 0.0000000000000000e+00 -1.9181519899471195e-04 -8.3178632237464425e-02 0.0000000000000000e+00 -2.8282640977743515e-04 -8.3192210337964034e-02 0.0000000000000000e+00 0.0000000000000000e+00 -3.9768903685241816e-02 0.0000000000000000e+00 0.0000000000000000e+00 -4.5194441325742483e-02 0.0000000000000000e+00 -1.3322707127611926e-04 -3.0997563037085830e-02 0.0000000000000000e+00 -1.4711227753312902e-04 -3.6672317584682007e-02 0.0000000000000000e+00 -1.9410957301586480e-04 -2.1434402401652768e-02 0.0000000000000000e+00 -2.5293422190718546e-04 -2.8346069822325209e-02 0.0000000000000000e+00 -2.4152779792237794e-04 -1.7757687680496449e-02 0.0000000000000000e+00 -2.0200819110354195e-04 -1.1856002639669540e-02 0.0000000000000000e+00 -1.2164341877153339e-04 -6.0656096872378782e-03 0.0000000000000000e+00 0.0000000000000000e+00 0.0000000000000000e+00 0.0000000000000000e+00 0.0000000000000000e+00 -8.0664576385936534e-02 0.0000000000000000e+00 -1.8285326240263244e-04 -8.1736853374079210e-02 0.0000000000000000e+00 -2.3730567322443200e-04 -8.2707303637647125e-02 0.0000000000000000e+00 -4.2087728943836309e-04 -8.3150337449695660e-02 0.0000000000000000e+00 -5.6869180921311792e-04 -8.3184111285563495e-02 0.0000000000000000e+00 0.0000000000000000e+00 -5.4915114339146795e-02 0.0000000000000000e+00 0.0000000000000000e+00 -5.0282941653590707e-02 0.0000000000000000e+00 -1.4851977141923408e-04 -4.7025050964474603e-02 0.0000000000000000e+00 -1.7943778722404838e-04 -4.2388836848805497e-02 0.0000000000000000e+00 -2.6590538431709218e-04 -3.4054262949213501e-02 0.0000000000000000e+00 -2.8021632617675137e-04 -3.8338208505506843e-02 0.0000000000000000e+00 -3.0794790302498566e-04 -2.4437254782804500e-02 0.0000000000000000e+00 -3.6181315377342395e-04 -2.9099501323411929e-02 0.0000000000000000e+00 -3.5118857801804695e-04 -3.2325491916386402e-02 0.0000000000000000e+00 -3.4961319536113127e-04 -2.2099681152009602e-02 0.0000000000000000e+00 -3.1307265924374045e-04 -1.7377834657612886e-02 0.0000000000000000e+00 -2.4743540199197964e-04 -1.1848430360596011e-02 0.0000000000000000e+00 -1.4340421965528864e-04 -6.0464083420586892e-03 0.0000000000000000e+00 0.0000000000000000e+00 0.0000000000000000e+00 0.0000000000000000e+00 0.0000000000000000e+00 -7.6086615333381166e-02 0.0000000000000000e+00 0.0000000000000000e+00 -7.8515557332400621e-02 0.0000000000000000e+00 -1.9885444396895564e-04 -7.9382988970529325e-02 0.0000000000000000e+00 -2.7340079395186105e-04 -8.0674993870569367e-02 0.0000000000000000e+00 -4.1169724724606497e-04 -8.1851711651053038e-02 0.0000000000000000e+00 -5.2444725487169476e-04 -8.2704472626880507e-02 0.0000000000000000e+00 -6.9746681175017976e-04 -8.3139013783277940e-02 0.0000000000000000e+00 -8.5850285085353674e-04 -8.3166067464712820e-02 0.0000000000000000e+00 0.0000000000000000e+00 -7.3340939422203016e-02 0.0000000000000000e+00 0.0000000000000000e+00 -5.9230298144293529e-02 0.0000000000000000e+00 0.0000000000000000e+00 -6.3229525715319895e-02 0.0000000000000000e+00 0.0000000000000000e+00 -6.6913738942073558e-02 0.0000000000000000e+00 0.0000000000000000e+00 -7.0283853577150876e-02 0.0000000000000000e+00 -1.7477946173791525e-04 -5.7092646590622673e-02 0.0000000000000000e+00 -1.5066114034360635e-04 -5.3471422261643080e-02 0.0000000000000000e+00 -2.2370558609467029e-04 -5.0264026410123133e-02 0.0000000000000000e+00 -3.2088995899536135e-04 -4.6695491461837636e-02 0.0000000000000000e+00 -3.7561409123356348e-04 -4.2227693436529636e-02 0.0000000000000000e+00 -4.0855205960944202e-04 -3.7010205166585167e-02 0.0000000000000000e+00 -4.2793861095716913e-04 -2.7372006327873101e-02 0.0000000000000000e+00 -4.5562029387252972e-04 -3.2824210408363225e-02 0.0000000000000000e+00 -4.9859348397161666e-04 -2.7565245785103127e-02 0.0000000000000000e+00 -4.3585004392489128e-04 -2.3193058523613145e-02 0.0000000000000000e+00 -3.7697555558072676e-04 -1.7420027765604817e-02 0.0000000000000000e+00 -2.8683624497413853e-04 -1.1795196808087785e-02 0.0000000000000000e+00 -1.6182588791462961e-04 -6.0101501334670253e-03 0.0000000000000000e+00 0.0000000000000000e+00 0.0000000000000000e+00 0.0000000000000000e+00 -2.3657047156254283e-04 -7.4595918179896900e-02 0.0000000000000000e+00 -2.6993902865850045e-04 -7.7339895061502240e-02 0.0000000000000000e+00 -4.3270418545500575e-04 -7.9234449172884983e-02 0.0000000000000000e+00 -5.4708637289642903e-04 -8.0667284662704397e-02 0.0000000000000000e+00 -6.7471965368552970e-04 -8.1853519842103983e-02 0.0000000000000000e+00 -8.1051911536377333e-04 -8.2691060330653821e-02 0.0000000000000000e+00 -9.7631743201322455e-04 -8.3110549096045344e-02 0.0000000000000000e+00 -1.1509259003234171e-03 -8.3132470437972714e-02 0.0000000000000000e+00 -2.2633942053052527e-04 -7.1744910470578280e-02 0.0000000000000000e+00 -1.9000434269617007e-04 -6.1117556002129272e-02 0.0000000000000000e+00 -2.0615847883251646e-04 -6.4957927238012261e-02 0.0000000000000000e+00 -2.1727908659848838e-04 -6.8527688334663217e-02 0.0000000000000000e+00 -3.4521387295628113e-04 -5.8880967977017654e-02 0.0000000000000000e+00 -3.4454486697461375e-04 -5.4516763024279095e-02 0.0000000000000000e+00 -4.3210249894955579e-04 -5.0235920330786180e-02 0.0000000000000000e+00 -4.9610407653726462e-04 -4.6217151609486654e-02 0.0000000000000000e+00 -5.3941543504535164e-04 -4.1835111386349058e-02 0.0000000000000000e+00 -5.6311347075953700e-04 -3.7225170037252231e-02 0.0000000000000000e+00 -5.5578351300495342e-04 -3.1852928923099121e-02 0.0000000000000000e+00 -5.6516016109979604e-04 -2.7708714032257709e-02 0.0000000000000000e+00 -5.0853058880264573e-04 -2.2630131922730314e-02 0.0000000000000000e+00 -4.3139265458405152e-04 -1.7270638183447238e-02 0.0000000000000000e+00 -3.2188626892626783e-04 -1.1745971303461979e-02 0.0000000000000000e+00 -1.7822114829420480e-04 -5.9867043339647975e-03 0.0000000000000000e+00 0.0000000000000000e+00 0.0000000000000000e+00 0.0000000000000000e+00 -4.5364681809998022e-04 -7.3185153362016406e-02 0.0000000000000000e+00 -4.4460532029047236e-04 -7.5435545627210776e-02 0.0000000000000000e+00 -5.6359104270390194e-04 -7.7269771139868562e-02 0.0000000000000000e+00 -6.8925267760051292e-04 -7.9065343851640268e-02 0.0000000000000000e+00 -8.1003394252457546e-04 -8.0652530654707053e-02 0.0000000000000000e+00 -9.4066406419514661e-04 -8.1838004818126545e-02 0.0000000000000000e+00 -1.0900102640531780e-03 -8.2653386116669197e-02 0.0000000000000000e+00 -1.2571801091892177e-03 -8.3065515995247918e-02 0.0000000000000000e+00 -1.4423393609517452e-03 -8.3079243264648939e-02 0.0000000000000000e+00 -4.3207928767061442e-04 -7.0141805005476857e-02 0.0000000000000000e+00 -3.8756854487420584e-04 -6.2930762314086577e-02 0.0000000000000000e+00 -4.1729428535065393e-04 -6.6664298060471833e-02 0.0000000000000000e+00 -5.3735176826575693e-04 -6.0846073762748996e-02 0.0000000000000000e+00 -5.0079929638866634e-04 -5.7512215298842984e-02 0.0000000000000000e+00 -5.6210228334715919e-04 -5.4241878587262871e-02 0.0000000000000000e+00 -6.2572766514785722e-04 -5.0198713613255959e-02 0.0000000000000000e+00 -6.7014969792613560e-04 -4.6108080659292013e-02 0.0000000000000000e+00 -6.9535520293603369e-04 -4.1747119152365335e-02 0.0000000000000000e+00 -6.9796257226688145e-04 -3.7153975825761507e-02 0.0000000000000000e+00 -6.8306533921797354e-04 -3.2601666771954786e-02 0.0000000000000000e+00 -6.4858018061650217e-04 -2.7681491875090850e-02 0.0000000000000000e+00 -5.7991351188929000e-04 -2.2565778593944721e-02 0.0000000000000000e+00 -4.8225320447846636e-04 -1.7249031308801656e-02 0.0000000000000000e+00 -3.5362663549796236e-04 -1.1720803910806160e-02 0.0000000000000000e+00 -1.9295031878309750e-04 -5.9697143207998286e-03 0.0000000000000000e+00 0.0000000000000000e+00 0.0000000000000000e+00 0.0000000000000000e+00 -6.4401397659488550e-04 -7.1725235929164050e-02 0.0000000000000000e+00 -6.8238796160313242e-04 -7.4737464403285589e-02 0.0000000000000000e+00 -8.2101260543796938e-04 -7.7048899831003770e-02 0.0000000000000000e+00 -9.4756971788338782e-04 -7.9011037241165788e-02 0.0000000000000000e+00 -1.0713735777887969e-03 -8.0618934666979933e-02 0.0000000000000000e+00 -1.2068385975951108e-03 -8.1799395718463896e-02 0.0000000000000000e+00 -1.3603065053577259e-03 -8.2597176841164313e-02 0.0000000000000000e+00 -1.5335639853515293e-03 -8.2999144234114378e-02 0.0000000000000000e+00 -1.7284947661019056e-03 -8.3005812407030671e-02 0.0000000000000000e+00 -6.2432321780342837e-04 -6.8338689462950547e-02 0.0000000000000000e+00 -6.1199443311520357e-04 -6.4584245385013242e-02 0.0000000000000000e+00 -6.9732666797107414e-04 -6.1873639404050461e-02 0.0000000000000000e+00 -6.8872911959446076e-04 -5.8334349325058661e-02 0.0000000000000000e+00 -7.5591306224768052e-04 -5.4175632861535934e-02 0.0000000000000000e+00 -8.0529978170627674e-04 -5.0152569171768684e-02 0.0000000000000000e+00 -8.3168065789564769e-04 -4.6047682095524525e-02 0.0000000000000000e+00 -8.3868025890392452e-04 -4.1731329307142906e-02 0.0000000000000000e+00 -8.2415455117280207e-04 -3.7289300527004708e-02 0.0000000000000000e+00 -7.9061765632748582e-04 -3.2545089556840087e-02 0.0000000000000000e+00 -7.3092786932671741e-04 -2.7601614519158824e-02 0.0000000000000000e+00 -6.4367181683301156e-04 -2.2525008277212853e-02 0.0000000000000000e+00 -5.2779190877207593e-04 -1.7221829723362208e-02 0.0000000000000000e+00 -3.8224398951511697e-04 -1.1700573496434909e-02 0.0000000000000000e+00 -2.0634425903650979e-04 -5.9591154252360955e-03 0.0000000000000000e+00 0.0000000000000000e+00 0.0000000000000000e+00 0.0000000000000000e+00 -8.2559951862300348e-04 -7.0104308792780401e-02 0.0000000000000000e+00 -8.3164951358628662e-04 -7.2730198108218416e-02 0.0000000000000000e+00 -9.4287651177344799e-04 -7.4820318997837268e-02 0.0000000000000000e+00 -1.0701137947605589e-03 -7.7018844971836087e-02 0.0000000000000000e+00 -1.1941300348106431e-03 -7.8957982095788443e-02 0.0000000000000000e+00 -1.3235837791713446e-03 -8.0552311604790997e-02 0.0000000000000000e+00 -1.4647441408707125e-03 -8.1726517466356008e-02 0.0000000000000000e+00 -1.6237473214198879e-03 -8.2515110607412831e-02 0.0000000000000000e+00 -1.8034461071434018e-03 -8.2912123633733043e-02 0.0000000000000000e+00 -2.0062861843886995e-03 -8.2914293294080510e-02 0.0000000000000000e+00 -8.0517231857409445e-04 -6.6905256736788821e-02 0.0000000000000000e+00 -7.8765855312839281e-04 -6.3974919055091020e-02 0.0000000000000000e+00 -8.4727516672898097e-04 -6.1350016075973804e-02 0.0000000000000000e+00 -8.9417737401839331e-04 -5.7877547282122278e-02 0.0000000000000000e+00 -9.4105892500610648e-04 -5.4055939298774003e-02 0.0000000000000000e+00 -9.7172190337870001e-04 -5.0097744522033187e-02 0.0000000000000000e+00 -9.8093507874967025e-04 -4.6000347333518300e-02 0.0000000000000000e+00 -9.7031302799384627e-04 -4.1704043866654418e-02 0.0000000000000000e+00 -9.3883300289815733e-04 -3.7182452881375963e-02 0.0000000000000000e+00 -8.8494534652505663e-04 -3.2473543355210147e-02 0.0000000000000000e+00 -8.0645068359941482e-04 -2.7582724828186408e-02 0.0000000000000000e+00 -7.0146918756898771e-04 -2.2494068581703098e-02 0.0000000000000000e+00 -5.6899342772854199e-04 -1.7195501633588732e-02 0.0000000000000000e+00 -4.0818122794067976e-04 -1.1682140746010813e-02 0.0000000000000000e+00 -2.1850915237772554e-04 -5.9498954979199641e-03 0.0000000000000000e+00 0.0000000000000000e+00 0.0000000000000000e+00 0.0000000000000000e+00 -9.8562078031507838e-04 -6.8421761706754111e-02 0.0000000000000000e+00 -1.0370618805766014e-03 -7.2050044135923585e-02 0.0000000000000000e+00 -1.1779567523212114e-03 -7.4824267973112785e-02 0.0000000000000000e+00 -1.3060586407015802e-03 -7.6978515967171854e-02 0.0000000000000000e+00 -1.4339779414133029e-03 -7.8880690056210581e-02 0.0000000000000000e+00 -1.5682119540379451e-03 -8.0462640914941805e-02 0.0000000000000000e+00 -1.7149831913266880e-03 -8.1630859971740785e-02 0.0000000000000000e+00 -1.8798682901547629e-03 -8.2414987089696023e-02 0.0000000000000000e+00 -2.0654312804273480e-03 -8.2807927463363518e-02 0.0000000000000000e+00 -2.2741286436212182e-03 -8.2807842990355776e-02 0.0000000000000000e+00 -9.6530839202102741e-04 -6.4821512479044288e-02 0.0000000000000000e+00 -1.0260823053006268e-03 -6.1311748678373766e-02 0.0000000000000000e+00 -1.0774678217258958e-03 -5.7685587586503745e-02 0.0000000000000000e+00 -1.1113969702495343e-03 -5.3936002317293917e-02 0.0000000000000000e+00 -1.1260486006591040e-03 -5.0034629969493719e-02 0.0000000000000000e+00 -1.1188439057118831e-03 -4.5942114543449021e-02 0.0000000000000000e+00 -1.0914824055331855e-03 -4.1639987375330000e-02 0.0000000000000000e+00 -1.0426578824221486e-03 -3.7133312572365421e-02 0.0000000000000000e+00 -9.7066594737761039e-04 -3.2425631271381310e-02 0.0000000000000000e+00 -8.7520739232749159e-04 -2.7545262926931911e-02 0.0000000000000000e+00 -7.5406574220425514e-04 -2.2459574208956112e-02 0.0000000000000000e+00 -6.0650067412132587e-04 -1.7168078328676239e-02 0.0000000000000000e+00 -4.3182733041635717e-04 -1.1663751469622259e-02 0.0000000000000000e+00 -2.2965318047027649e-04 -5.9416950809201919e-03 0.0000000000000000e+00 0.0000000000000000e+00 0.0000000000000000e+00 0.0000000000000000e+00 -1.1208632620129985e-03 -6.6937393630145808e-02 0.0000000000000000e+00 -1.1844481673211915e-03 -6.9534249124424241e-02 0.0000000000000000e+00 -1.2813524587122272e-03 -7.2362032890255668e-02 0.0000000000000000e+00 -1.4095439171714253e-03 -7.4761306949470488e-02 0.0000000000000000e+00 -1.5364386906061914e-03 -7.6892261259362465e-02 0.0000000000000000e+00 -1.6658006053181108e-03 -7.8780684111706745e-02 0.0000000000000000e+00 -1.8058541414427000e-03 -8.0354242347143529e-02 0.0000000000000000e+00 -1.9580615856937371e-03 -8.1518543167844668e-02 0.0000000000000000e+00 -2.1285214906621081e-03 -8.2299621668609615e-02 0.0000000000000000e+00 -2.3186518282997549e-03 -8.2690191818092632e-02 0.0000000000000000e+00 -2.5316585988935277e-03 -8.2689771226446676e-02 0.0000000000000000e+00 -1.1569730509266598e-03 -6.4223933353724921e-02 0.0000000000000000e+00 -1.2112618624496535e-03 -6.1057423781558331e-02 0.0000000000000000e+00 -1.2509260109600628e-03 -5.7564223314997831e-02 0.0000000000000000e+00 -1.2709788770948829e-03 -5.3860927622719171e-02 0.0000000000000000e+00 -1.2694146676695941e-03 -4.9963742548794814e-02 0.0000000000000000e+00 -1.2463795596506762e-03 -4.5871392442842662e-02 0.0000000000000000e+00 -1.2027523657180096e-03 -4.1572524389249604e-02 0.0000000000000000e+00 -1.1374367855734081e-03 -3.7073193144710075e-02 0.0000000000000000e+00 -1.0496338330721118e-03 -3.2383416432784626e-02 0.0000000000000000e+00 -9.3822482993601302e-04 -2.7500852564604300e-02 0.0000000000000000e+00 -8.0219269457198204e-04 -2.2420949405393926e-02 0.0000000000000000e+00 -6.4084598658985649e-04 -1.7138410473344391e-02 0.0000000000000000e+00 -4.5356391144800472e-04 -1.1645442195671695e-02 0.0000000000000000e+00 -2.4033324013596736e-04 -5.9435520597155289e-03 0.0000000000000000e+00 0.0000000000000000e+00 0.0000000000000000e+00 0.0000000000000000e+00 -1.2762548234499008e-03 -6.7182372632584766e-02 0.0000000000000000e+00 -1.3845323630442485e-03 -6.9794997312836948e-02 0.0000000000000000e+00 -1.5003010645838800e-03 -7.2350520780035690e-02 0.0000000000000000e+00 -1.6282496017935753e-03 -7.4691170002505039e-02 0.0000000000000000e+00 -1.7583188037670887e-03 -7.6794773450229128e-02 0.0000000000000000e+00 -1.8913749425271686e-03 -7.8664627447697713e-02 0.0000000000000000e+00 -2.0368509007405080e-03 -8.0230639242800800e-02 0.0000000000000000e+00 -2.1942359029204933e-03 -8.1392750859339377e-02 0.0000000000000000e+00 -2.3689977934093849e-03 -8.2172023244862016e-02 0.0000000000000000e+00 -2.5636506424262726e-03 -8.2562706866410748e-02 0.0000000000000000e+00 -2.7797063728251187e-03 -8.2562906752285656e-02 0.0000000000000000e+00 -1.3395819524604749e-03 -6.4173266255007091e-02 0.0000000000000000e+00 -1.3871646855220683e-03 -6.0944162442748438e-02 0.0000000000000000e+00 -1.4144244334703948e-03 -5.7477944509171291e-02 0.0000000000000000e+00 -1.4191291598901453e-03 -5.3790884025811198e-02 0.0000000000000000e+00 -1.4029508817223844e-03 -4.9885699856911436e-02 0.0000000000000000e+00 -1.3645992463848929e-03 -4.5794088381749885e-02 0.0000000000000000e+00 -1.3054262266052614e-03 -4.1498306748282220e-02 0.0000000000000000e+00 -1.2247389455792314e-03 -3.7006278101222957e-02 0.0000000000000000e+00 -1.1216345923037978e-03 -3.2318367741231389e-02 0.0000000000000000e+00 -9.9612957919296128e-04 -2.7449572927262595e-02 0.0000000000000000e+00 -8.4646367584290322e-04 -2.2377612229294304e-02 0.0000000000000000e+00 -6.7242468143049365e-04 -1.7104369862176956e-02 0.0000000000000000e+00 -4.7345126291401419e-04 -1.1621051273673745e-02 0.0000000000000000e+00 -2.4920287995498655e-04 -5.9191019589438666e-03 0.0000000000000000e+00 0.0000000000000000e+00 0.0000000000000000e+00 0.0000000000000000e+00 -1.4604113430774605e-03 -6.7107722796097946e-02 0.0000000000000000e+00 -1.5832682031873724e-03 -6.9780732591566585e-02 0.0000000000000000e+00 -1.7065452441096295e-03 -7.2290760084223804e-02 0.0000000000000000e+00 -1.8383506173145583e-03 -7.4600361500486545e-02 0.0000000000000000e+00 -1.9711258986454205e-03 -7.6681559487749407e-02 0.0000000000000000e+00 -2.1107926747685403e-03 -7.8534614656030635e-02 0.0000000000000000e+00 -2.2613250894964500e-03 -8.0095184767209643e-02 0.0000000000000000e+00 -2.4227836615468464e-03 -8.1256272449426833e-02 0.0000000000000000e+00 -2.6010353696149253e-03 -8.2035844212449083e-02 0.0000000000000000e+00 -2.8002093793522949e-03 -8.2427836533171928e-02 0.0000000000000000e+00 -3.0200151582882463e-03 -8.2428428653054733e-02 0.0000000000000000e+00 -1.5175704135253663e-03 -6.4085175124243846e-02 0.0000000000000000e+00 -1.5539710597184341e-03 -6.0852021206307880e-02 0.0000000000000000e+00 -1.5697309634307777e-03 -5.7397963946313198e-02 0.0000000000000000e+00 -1.5591628919786815e-03 -5.3710122375101893e-02 0.0000000000000000e+00 -1.5277268871100721e-03 -4.9801172668160518e-02 0.0000000000000000e+00 -1.4746979074768804e-03 -4.5712401591775594e-02 0.0000000000000000e+00 -1.4008539744780552e-03 -4.1421783605457986e-02 0.0000000000000000e+00 -1.3054070120952386e-03 -3.6928213405590229e-02 0.0000000000000000e+00 -1.1889166899733173e-03 -3.2260676382744158e-02 0.0000000000000000e+00 -1.0497264320160071e-03 -2.7393446977737324e-02 0.0000000000000000e+00 -8.8744932854162154e-04 -2.2330276125999325e-02 0.0000000000000000e+00 -7.0161211523018965e-04 -1.7065558897830655e-02 0.0000000000000000e+00 -4.9181709359130406e-04 -1.1592635515027932e-02 0.0000000000000000e+00 -2.5781426421680586e-04 -5.9034430888204167e-03 0.0000000000000000e+00 0.0000000000000000e+00 0.0000000000000000e+00 0.0000000000000000e+00 -1.6461057552319776e-03 -6.7001790117843588e-02 0.0000000000000000e+00 -1.7746737933359063e-03 -6.9704495225628757e-02 0.0000000000000000e+00 -1.9043509127748643e-03 -7.2202149077640901e-02 0.0000000000000000e+00 -2.0394085469527395e-03 -7.4490404842401770e-02 0.0000000000000000e+00 -2.1748482248783586e-03 -7.6553516526559284e-02 0.0000000000000000e+00 -2.3242154000067158e-03 -7.8394321953643195e-02 0.0000000000000000e+00 -2.4793834579447740e-03 -7.9951475550252657e-02 0.0000000000000000e+00 -2.6432394284216622e-03 -8.1113669133450986e-02 0.0000000000000000e+00 -2.8265077194085542e-03 -8.1895222536185294e-02 0.0000000000000000e+00 -3.0302596588307356e-03 -8.2285829209770234e-02 0.0000000000000000e+00 -3.2536878071831492e-03 -8.2285171162094828e-02 0.0000000000000000e+00 -1.6895226493923736e-03 -6.3990171965677967e-02 0.0000000000000000e+00 -1.7131174166909392e-03 -6.0760198619567551e-02 0.0000000000000000e+00 -1.7169197872468323e-03 -5.7313765600809079e-02 0.0000000000000000e+00 -1.6909601815472946e-03 -5.3622391081254522e-02 0.0000000000000000e+00 -1.6447199001663967e-03 -4.9710840606530346e-02 0.0000000000000000e+00 -1.5776953262688163e-03 -4.5627001370811604e-02 0.0000000000000000e+00 -1.4900579923362929e-03 -4.1343590625204159e-02 0.0000000000000000e+00 -1.3812924682428793e-03 -3.6862644781878014e-02 0.0000000000000000e+00 -1.2509977676346134e-03 -3.2186539153809389e-02 0.0000000000000000e+00 -1.0996122511953332e-03 -2.7332666945116383e-02 0.0000000000000000e+00 -9.2564297950702124e-04 -2.2279424502729524e-02 0.0000000000000000e+00 -7.2881765789997353e-04 -1.7023823328614140e-02 0.0000000000000000e+00 -5.0898630970452852e-04 -1.1562757956164918e-02 0.0000000000000000e+00 -2.6611607991040192e-04 -5.8920266041860457e-03 0.0000000000000000e+00 0.0000000000000000e+00 0.0000000000000000e+00 0.0000000000000000e+00 -1.8239377962827542e-03 -6.6906445028071262e-02 0.0000000000000000e+00 -1.9586376798252443e-03 -6.9608062702556830e-02 0.0000000000000000e+00 -2.0944029666241913e-03 -7.2094782684229822e-02 0.0000000000000000e+00 -2.2328003388519626e-03 -7.4364447738366951e-02 0.0000000000000000e+00 -2.3769643344067255e-03 -7.6416106744768703e-02 0.0000000000000000e+00 -2.5322010525702194e-03 -7.8247186929063711e-02 0.0000000000000000e+00 -2.6915172842215179e-03 -7.9805702286995808e-02 0.0000000000000000e+00 -2.8581486095972421e-03 -8.0970165756361720e-02 0.0000000000000000e+00 -3.0459984854343970e-03 -8.1745299380682757e-02 0.0000000000000000e+00 -3.2529016444019158e-03 -8.2133679467678675e-02 0.0000000000000000e+00 -3.4800160365397095e-03 -8.2131904294007171e-02 0.0000000000000000e+00 -1.8539342524756567e-03 -6.3892561404003012e-02 0.0000000000000000e+00 -1.8639449317321719e-03 -6.0662835306195907e-02 0.0000000000000000e+00 -1.8511376621873164e-03 -5.7209190831333780e-02 0.0000000000000000e+00 -1.8151619652330879e-03 -5.3528031994203987e-02 0.0000000000000000e+00 -1.7548059466149602e-03 -4.9615353487133633e-02 0.0000000000000000e+00 -1.6744389843092559e-03 -4.5537364839735514e-02 0.0000000000000000e+00 -1.5737253098625499e-03 -4.1260715630163598e-02 0.0000000000000000e+00 -1.4522334278201741e-03 -3.6787149184728155e-02 0.0000000000000000e+00 -1.3093828738470559e-03 -3.2113041905003664e-02 0.0000000000000000e+00 -1.1465059671517655e-03 -2.7271706449787870e-02 0.0000000000000000e+00 -9.6150018488419444e-04 -2.2226407994313802e-02 0.0000000000000000e+00 -7.5452470878930580e-04 -1.6983296565722679e-02 0.0000000000000000e+00 -5.2574100891975776e-04 -1.1544059682876230e-02 0.0000000000000000e+00 -2.7370231715120549e-04 -5.8741358971972401e-03 0.0000000000000000e+00 0.0000000000000000e+00 0.0000000000000000e+00 0.0000000000000000e+00 -1.9942072302666382e-03 -6.6804588521505517e-02 0.0000000000000000e+00 -2.1351440762017952e-03 -6.9497903028566441e-02 0.0000000000000000e+00 -2.2771013886284147e-03 -7.1974055062413361e-02 0.0000000000000000e+00 -2.4209327307446967e-03 -7.4230997901949133e-02 0.0000000000000000e+00 -2.5723250083257519e-03 -7.6273763121720059e-02 0.0000000000000000e+00 -2.7313191140499802e-03 -7.8096050019991467e-02 0.0000000000000000e+00 -2.8937988795247308e-03 -7.9651437533916597e-02 0.0000000000000000e+00 -3.0676490701800454e-03 -8.0810728437892859e-02 0.0000000000000000e+00 -3.2591794963728435e-03 -8.1584235949926795e-02 0.0000000000000000e+00 -3.4686877477239824e-03 -8.1971473160614594e-02 0.0000000000000000e+00 -3.6976904507332749e-03 -8.1969645735075619e-02 0.0000000000000000e+00 -2.0107745760408703e-03 -6.3788248991322974e-02 0.0000000000000000e+00 -2.0071798928120144e-03 -6.0558579561028766e-02 0.0000000000000000e+00 -1.9825250619708995e-03 -5.7111845975468832e-02 0.0000000000000000e+00 -1.9313772034896678e-03 -5.3424207372739799e-02 0.0000000000000000e+00 -1.8587678368063693e-03 -4.9515310429850502e-02 0.0000000000000000e+00 -1.7656873620499440e-03 -4.5443310248418960e-02 0.0000000000000000e+00 -1.6525534218225890e-03 -4.1173176767355435e-02 0.0000000000000000e+00 -1.5190855602321743e-03 -3.6707863406701756e-02 0.0000000000000000e+00 -1.3647149579014306e-03 -3.2042496551710972e-02 0.0000000000000000e+00 -1.1908124951941128e-03 -2.7208351338148362e-02 0.0000000000000000e+00 -9.9543356302849600e-04 -2.2172762928259673e-02 0.0000000000000000e+00 -7.7897724976902049e-04 -1.6943378097621659e-02 0.0000000000000000e+00 -5.4094823863463362e-04 -1.1508650963777916e-02 0.0000000000000000e+00 -2.8115884935122032e-04 -5.8604460424355525e-03 0.0000000000000000e+00 0.0000000000000000e+00 0.0000000000000000e+00 0.0000000000000000e+00 -2.1571405235149550e-03 -6.6691688585992157e-02 0.0000000000000000e+00 -2.3042121441735597e-03 -6.9376592085409666e-02 0.0000000000000000e+00 -2.4520605315983038e-03 -7.1842585974366033e-02 0.0000000000000000e+00 -2.6028878699469065e-03 -7.4091247811039998e-02 0.0000000000000000e+00 -2.7593621975793678e-03 -7.6123652333508804e-02 0.0000000000000000e+00 -2.9211391309627976e-03 -7.7934233027987534e-02 0.0000000000000000e+00 -3.0903138183555139e-03 -7.9482309109465174e-02 0.0000000000000000e+00 -3.2693080932414309e-03 -8.0639863175610491e-02 0.0000000000000000e+00 -3.4642980935018146e-03 -8.1413430997646363e-02 0.0000000000000000e+00 -3.6764745999775953e-03 -8.1801331823747894e-02 0.0000000000000000e+00 -3.9065635940745318e-03 -8.1800855000074654e-02 0.0000000000000000e+00 -2.1605541140376269e-03 -6.3676120315258364e-02 0.0000000000000000e+00 -2.1438307670769265e-03 -6.0447125888827655e-02 0.0000000000000000e+00 -2.1047223913620476e-03 -5.6995507656681224e-02 0.0000000000000000e+00 -2.0430578899116548e-03 -5.3318580910993667e-02 0.0000000000000000e+00 -1.9573059036753744e-03 -4.9411251501372898e-02 0.0000000000000000e+00 -1.8521267344817735e-03 -4.5345283027312881e-02 0.0000000000000000e+00 -1.7271934658111593e-03 -4.1081750944507292e-02 0.0000000000000000e+00 -1.5824093140353352e-03 -3.6625379654126204e-02 0.0000000000000000e+00 -1.4172922935798257e-03 -3.1971563528323851e-02 0.0000000000000000e+00 -1.2329094059028280e-03 -2.7144266933000528e-02 0.0000000000000000e+00 -1.0278048950791399e-03 -2.2119243969194933e-02 0.0000000000000000e+00 -8.0237080714635697e-04 -1.6903260586666639e-02 0.0000000000000000e+00 -5.5595338078586452e-04 -1.1481823561294310e-02 0.0000000000000000e+00 -2.8841815116656665e-04 -5.8478799621960618e-03 0.0000000000000000e+00 0.0000000000000000e+00 0.0000000000000000e+00 0.0000000000000000e+00 -2.3131352390102148e-03 -6.6570642160295762e-02 0.0000000000000000e+00 -2.4662306599166853e-03 -6.9246255424265629e-02 0.0000000000000000e+00 -2.6197484991305519e-03 -7.1702153077143546e-02 0.0000000000000000e+00 -2.7736805642585610e-03 -7.3937287655272368e-02 0.0000000000000000e+00 -2.9387712108833739e-03 -7.5964260572759665e-02 0.0000000000000000e+00 -3.1060267467116435e-03 -7.7762339720556031e-02 0.0000000000000000e+00 -3.2808813519440354e-03 -7.9304153738434455e-02 0.0000000000000000e+00 -3.4639672419950868e-03 -8.0461299178423110e-02 0.0000000000000000e+00 -3.6615082967405071e-03 -8.1236241722391175e-02 0.0000000000000000e+00 -3.8765600175073266e-03 -8.1626332809577026e-02 0.0000000000000000e+00 -4.1082538610942125e-03 -8.1627514413142227e-02 0.0000000000000000e+00 -2.3037998581773474e-03 -6.3556355973288250e-02 0.0000000000000000e+00 -2.2742076064927686e-03 -6.0328330580614223e-02 0.0000000000000000e+00 -2.2232868470117434e-03 -5.6881788649994582e-02 0.0000000000000000e+00 -2.1486055161643839e-03 -5.3203598009434611e-02 0.0000000000000000e+00 -2.0510494998859483e-03 -4.9303661340244206e-02 0.0000000000000000e+00 -1.9343373072884663e-03 -4.5243899378060635e-02 0.0000000000000000e+00 -1.7982050815023257e-03 -4.0987430201724663e-02 0.0000000000000000e+00 -1.6426946029522904e-03 -3.6540196668063657e-02 0.0000000000000000e+00 -1.4672884784654536e-03 -3.1895699840522478e-02 0.0000000000000000e+00 -1.2731707114873414e-03 -2.7079516366165526e-02 0.0000000000000000e+00 -1.0589992029504049e-03 -2.2067833669461308e-02 0.0000000000000000e+00 -8.2499704576489009e-04 -1.6864754075336889e-02 0.0000000000000000e+00 -5.7055302870255033e-04 -1.1456431237441752e-02 0.0000000000000000e+00 -2.9549022005264210e-04 -5.8354036900502976e-03 0.0000000000000000e+00 0.0000000000000000e+00 0.0000000000000000e+00 0.0000000000000000e+00 -2.4628048301563949e-03 -6.6442235062201219e-02 0.0000000000000000e+00 -2.6216912457617671e-03 -6.9108219056867634e-02 0.0000000000000000e+00 -2.7811351275922516e-03 -7.1554202541557005e-02 0.0000000000000000e+00 -2.9429783649753708e-03 -7.3782953646142665e-02 0.0000000000000000e+00 -3.1109642668347998e-03 -7.5795282150889945e-02 0.0000000000000000e+00 -3.2863011245780117e-03 -7.7582816032127050e-02 0.0000000000000000e+00 -3.4657318239349924e-03 -7.91199898