<?xml version='1.0' encoding='utf-8'?>
<VTKFile type="UnstructuredGrid" version="0.1" byte_order="LittleEndian"><UnstructuredGrid><Piece NumberOfPoints="10049" NumberOfCells="4920"><PointData><DataArray type="Float64" format="ascii" Name="displacement" NumberOfComponents="3">0.0000000000000000e+00 0.0000000000000000e+00 0.0000000000000000e+00 0.0000000000000000e+00 -3.3626130051727365e+00 0.0000000000000000e+00 0.0000000000000000e+00 -6.4242981710292471e+00 0.0000000000000000e+00 -4.1990078214800344e-03 -2.3385317471582918e+00 0.0000000000000000e+00 0.0000000000000000e+00 0.0000000000000000e+00 0.0000000000000000e+00 0.0000000000000000e+00 -9.1863371166131937e+00 0.0000000000000000e+00 0.0000000000000000e+00 -1.1651347727902920e+01 0.0000000000000000e+00 0.0000000000000000e+00 -1.3822326467702155e+01 0.0000000000000000e+00 -1.0811817823893980e-02 -5.0068090120289126e+00 0.0000000000000000e+00 -1.8255592256711223e-02 -7.8040610368281422e+00 0.0000000000000000e+00 -1.5042483254184218e-02 -3.0541349953584329e+00 0.0000000000000000e+00 0.0000000000000000e+00 0.0000000000000000e+00 0.0000000000000000e+00 0.0000000000000000e+00 -2.0958952051276313e+01 0.0000000000000000e+00 0.0000000000000000e+00 -1.5702220272585647e+01 0.0000000000000000e+00 0.0000000000000000e+00 -1.7293609152935900e+01 0.0000000000000000e+00 -2.2308841207421916e-02 -1.0427831818945016e+01 0.0000000000000000e+00 -2.3213795827566670e-02 -1.2745720907852187e+01 0.0000000000000000e+00 -2.1336420484229443e-02 -1.4769872343453782e+01 0.0000000000000000e+00 -3.2149000524940713e-02 -6.3901351579382091e+00 0.0000000000000000e+00 -4.3984177835404488e-02 -9.1425626659768184e+00 0.0000000000000000e+00 -3.9952989891179735e-02 -5.1172965049751005e+00 0.0000000000000000e+00 -2.5744544141203841e-02 -2.7751163085142210e+00 0.0000000000000000e+00 0.0000000000000000e+00 0.0000000000000000e+00 0.0000000000000000e+00 0.0000000000000000e+00 -1.8598450293752496e+01 0.0000000000000000e+00 0.0000000000000000e+00 -1.9617859123761011e+01 0.0000000000000000e+00 0.0000000000000000e+00 -2.0351952044303985e+01 0.0000000000000000e+00 0.0000000000000000e+00 -2.0799657302958945e+01 0.0000000000000000e+00 1.3103100926967670e-02 -2.0887462219989217e+01 0.0000000000000000e+00 2.1605421471465092e-02 -2.0960167083029422e+01 0.0000000000000000e+00 -1.6996977496775433e-02 -1.6503398096117390e+01 0.0000000000000000e+00 -1.0705041734432649e-02 -1.7942083735592750e+01 0.0000000000000000e+00 -4.8327789598768642e-02 -1.1595591995625737e+01 0.0000000000000000e+00 -4.7226641889901375e-02 -1.3770929928238735e+01 0.0000000000000000e+00 -4.0805963644640626e-02 -1.5643490472916316e+01 0.0000000000000000e+00 -7.3706407433931934e-02 -1.0473123049733651e+01 0.0000000000000000e+00 -6.4930044492732930e-02 -7.7613573253663004e+00 0.0000000000000000e+00 -6.0720524112009164e-02 -5.3104159042953683e+00 0.0000000000000000e+00 -3.9855676874246133e-02 -2.7906474705510238e+00 0.0000000000000000e+00 0.0000000000000000e+00 0.0000000000000000e+00 0.0000000000000000e+00 -3.2947696099980273e-03 -1.9095820909608506e+01 0.0000000000000000e+00 4.1598957084467494e-03 -1.9966542653296123e+01 0.0000000000000000e+00 1.2317194036509063e-02 -2.0590217566841357e+01 0.0000000000000000e+00 2.9233966059997969e-02 -2.0872378060987405e+01 0.0000000000000000e+00 4.4703458420351068e-02 -2.0963869051391192e+01 0.0000000000000000e+00 -2.9913829049985415e-02 -1.7226907952158424e+01 0.0000000000000000e+00 -1.5764907079274904e-02 -1.8516485627659019e+01 0.0000000000000000e+00 -7.6223302185903119e-02 -1.2727047960876435e+01 0.0000000000000000e+00 -7.0310540228916987e-02 -1.4714701786133615e+01 0.0000000000000000e+00 -5.6798609041569040e-02 -1.6450497861962173e+01 0.0000000000000000e+00 -1.0705738023457645e-01 -1.1679454556798740e+01 0.0000000000000000e+00 -9.7802831143994268e-02 -9.6879405398353189e+00 0.0000000000000000e+00 -9.9997285435186503e-02 -7.8010249714142885e+00 0.0000000000000000e+00 -8.8611454202422349e-02 -5.4419721580236686e+00 0.0000000000000000e+00 -5.6966747143255878e-02 -2.8299186096535149e+00 0.0000000000000000e+00 0.0000000000000000e+00 0.0000000000000000e+00 0.0000000000000000e+00 -3.9098652044880012e-04 -1.9521066575246930e+01 0.0000000000000000e+00 1.1698331960753787e-02 -2.0167832105281345e+01 0.0000000000000000e+00 2.6821786830121586e-02 -2.0574091891317046e+01 0.0000000000000000e+00 4.8414337431129877e-02 -2.0860522195914456e+01 0.0000000000000000e+00 7.1207927042859193e-02 -2.0970613022722389e+01 0.0000000000000000e+00 -3.7567705508070488e-02 -1.7890201686365184e+01 0.0000000000000000e+00 -1.4210857306452872e-02 -1.9023863525333812e+01 0.0000000000000000e+00 -1.0416041757966950e-01 -1.3691038709110083e+01 0.0000000000000000e+00 -9.0739071010719485e-02 -1.5582507763436958e+01 0.0000000000000000e+00 -6.7953737364600128e-02 -1.7200004328140981e+01 0.0000000000000000e+00 -1.3843076657983466e-01 -1.2593625328645107e+01 0.0000000000000000e+00 -1.3781037459910581e-01 -1.0281075013143861e+01 0.0000000000000000e+00 -1.3958139232519007e-01 -7.9061106450296146e+00 0.0000000000000000e+00 -1.2108087868847422e-01 -5.4658657081508775e+00 0.0000000000000000e+00 -7.6519029016446569e-02 -2.8384757675128243e+00 0.0000000000000000e+00 0.0000000000000000e+00 0.0000000000000000e+00 0.0000000000000000e+00 1.3008748464144224e-02 -2.0000993448398319e+01 0.0000000000000000e+00 -5.1536416627729030e-03 -1.9454391290818084e+01 0.0000000000000000e+00 4.1115626538873372e-02 -2.0552260778864078e+01 0.0000000000000000e+00 7.1958570367205182e-02 -2.0860844544027508e+01 0.0000000000000000e+00 1.0318477475618693e-01 -2.0981751062418866e+01 0.0000000000000000e+00 -3.8373730669934186e-02 -1.8518310385962458e+01 0.0000000000000000e+00 -7.7239640484464939e-02 -1.7607545633864184e+01 0.0000000000000000e+00 0.0000000000000000e+00 0.0000000000000000e+00 0.0000000000000000e+00 -1.3084298240001549e-01 -1.4624017016426759e+01 0.0000000000000000e+00 -1.0825291537511662e-01 -1.6353581794294382e+01 0.0000000000000000e+00 -1.7198333707285357e-01 -1.3601863091904466e+01 0.0000000000000000e+00 -1.7282121400360234e-01 -1.1881545034717217e+01 0.0000000000000000e+00 -1.8548405753788547e-01 -1.0118324369780783e+01 0.0000000000000000e+00 -1.8421688972059913e-01 -7.8844878818313457e+00 0.0000000000000000e+00 -1.5793510318128096e-01 -5.4624989647635802e+00 0.0000000000000000e+00 -9.8727309863340759e-02 -2.8396465597228646e+00 0.0000000000000000e+00 0.0000000000000000e+00 0.0000000000000000e+00 0.0000000000000000e+00 0.0000000000000000e+00 -1.9481196329681556e+01 0.0000000000000000e+00 0.0000000000000000e+00 -1.9499980806326697e+01 0.0000000000000000e+00 1.5669820476727617e-02 -1.9474562420898685e+01 0.0000000000000000e+00 0.0000000000000000e+00 -1.9463020800715686e+01 0.0000000000000000e+00 2.1683957950164808e-02 -2.0061935361092491e+01 0.0000000000000000e+00 -1.0892027693857994e-02 -1.9391540268888100e+01 0.0000000000000000e+00 5.8393744722390520e-02 -2.0557782062279131e+01 0.0000000000000000e+00 1.0046757075024479e-01 -2.0871050659957369e+01 0.0000000000000000e+00 1.4285416267126594e-01 -2.0999478363043469e+01 0.0000000000000000e+00 -5.5530095408227474e-02 -1.8506669306377429e+01 0.0000000000000000e+00 -1.1326380560448827e-01 -1.7264222864266728e+01 0.0000000000000000e+00 0.0000000000000000e+00 -3.4897927517970944e+00 0.0000000000000000e+00 2.9451532027666916e-02 -2.3187351149604587e+00 0.0000000000000000e+00 0.0000000000000000e+00 0.0000000000000000e+00 0.0000000000000000e+00 -1.6004724654558469e-01 -1.5446553158817073e+01 0.0000000000000000e+00 -1.6747483492991502e-01 -1.6386790485470581e+01 0.0000000000000000e+00 -2.0344219605728303e-01 -1.4130008051536564e+01 0.0000000000000000e+00 -2.1653208484140765e-01 -1.2313292409583800e+01 0.0000000000000000e+00 -2.3812787976155811e-01 -1.0079299619081660e+01 0.0000000000000000e+00 -2.3420204622938720e-01 -7.8480587225805234e+00 0.0000000000000000e+00 -1.9864801231481477e-01 -5.4473506272156396e+00 0.0000000000000000e+00 -1.2345079048263759e-01 -2.8360370954525576e+00 0.0000000000000000e+00 0.0000000000000000e+00 0.0000000000000000e+00 0.0000000000000000e+00 0.0000000000000000e+00 -6.6177168082794662e+00 0.0000000000000000e+00 3.0807682700709420e-02 -1.9488845911155437e+01 0.0000000000000000e+00 4.6980200105650446e-02 -1.9513542779845618e+01 0.0000000000000000e+00 0.0000000000000000e+00 -1.9523207011807301e+01 0.0000000000000000e+00 3.7788577986543330e-02 -1.9463575398297806e+01 0.0000000000000000e+00 2.8518665806125020e-02 -2.0062079627880639e+01 0.0000000000000000e+00 -1.6774753901873538e-02 -1.9375379448200235e+01 0.0000000000000000e+00 7.8591510636280199e-02 -2.0566705783012335e+01 0.0000000000000000e+00 1.3504859194075239e-01 -2.0887951464304319e+01 0.0000000000000000e+00 1.9251792975701384e-01 -2.1026984659665423e+01 0.0000000000000000e+00 -7.4483765542259175e-02 -1.8497776428554932e+01 0.0000000000000000e+00 -1.3637181260176764e-01 -1.7500870071912146e+01 0.0000000000000000e+00 9.0739029231566820e-02 -5.1686772411326114e+00 0.0000000000000000e+00 7.7989930889665590e-02 -2.6341240043915177e+00 0.0000000000000000e+00 0.0000000000000000e+00 0.0000000000000000e+00 0.0000000000000000e+00 -2.0601073504135059e-01 -1.5246859746431992e+01 0.0000000000000000e+00 -2.0486380331027737e-01 -1.6373178249116869e+01 0.0000000000000000e+00 -2.5021662881221779e-01 -1.3800886366668822e+01 0.0000000000000000e+00 -2.8023011567443995e-01 -1.1971539474015430e+01 0.0000000000000000e+00 -2.9904490377426307e-01 -9.9780898340968616e+00 0.0000000000000000e+00 -2.9091620945471403e-01 -7.8240759832230902e+00 0.0000000000000000e+00 -2.4447569592519536e-01 -5.4458181639623717e+00 0.0000000000000000e+00 -1.5099662528121069e-01 -2.8402732818824146e+00 0.0000000000000000e+00 0.0000000000000000e+00 0.0000000000000000e+00 0.0000000000000000e+00 0.0000000000000000e+00 -9.3877192788425656e+00 0.0000000000000000e+00 1.3312620441640821e-01 -8.2133010212755853e+00 0.0000000000000000e+00 0.0000000000000000e+00 -1.1806910521800823e+01 0.0000000000000000e+00 0.0000000000000000e+00 -1.3883346013857746e+01 0.0000000000000000e+00 7.6110985061311073e-02 -1.9495030888812604e+01 0.0000000000000000e+00 1.0436767957385375e-01 -1.9523485412460989e+01 0.0000000000000000e+00 7.1532783332081643e-02 -1.9536171516116994e+01 0.0000000000000000e+00 0.0000000000000000e+00 -1.9542524201331126e+01 0.0000000000000000e+00 1.0018634962893208e-01 -1.9465061752031218e+01 0.0000000000000000e+00 3.7174010421610990e-02 -2.0073111028658097e+01 0.0000000000000000e+00 -2.1643929202765970e-02 -1.9396668189463142e+01 0.0000000000000000e+00 1.0310613048649257e-01 -2.0584066008962392e+01 0.0000000000000000e+00 1.7750233189229406e-01 -2.0915812277348337e+01 0.0000000000000000e+00 2.5421803649218888e-01 -2.1068633635809590e+01 0.0000000000000000e+00 -9.2825520244046653e-02 -1.8556059022766547e+01 0.0000000000000000e+00 -1.7097090970108036e-01 -1.7570525179310991e+01 0.0000000000000000e+00 2.3090466494399486e-01 -7.3141704238470346e+00 0.0000000000000000e+00 2.0962493929577081e-01 -5.1671329229943037e+00 0.0000000000000000e+00 1.4160124172304644e-01 -2.7809397143537034e+00 0.0000000000000000e+00 0.0000000000000000e+00 0.0000000000000000e+00 0.0000000000000000e+00 -2.6080321481831581e-01 -1.5134456633003543e+01 0.0000000000000000e+00 -2.4955471907318375e-01 -1.6442685977339579e+01 0.0000000000000000e+00 -3.1284440399847746e-01 -1.3688520523038557e+01 0.0000000000000000e+00 -3.5235910725809960e-01 -1.1927590600101682e+01 0.0000000000000000e+00 -3.6946374323844133e-01 -9.9812211052264637e+00 0.0000000000000000e+00 -3.5368216417172366e-01 -7.8322484240363606e+00 0.0000000000000000e+00 -2.9441073019714731e-01 -5.4589278152700755e+00 0.0000000000000000e+00 -1.8066303477983678e-01 -2.8504455767738270e+00 0.0000000000000000e+00 0.0000000000000000e+00 0.0000000000000000e+00 0.0000000000000000e+00 0.0000000000000000e+00 -1.9525386766950511e+01 0.0000000000000000e+00 0.0000000000000000e+00 -1.5625277141987523e+01 0.0000000000000000e+00 0.0000000000000000e+00 -1.7040491816983920e+01 0.0000000000000000e+00 1.7448747738672543e-01 -1.0695938213817756e+01 0.0000000000000000e+00 3.1539015058027975e-01 -9.5696916887939789e+00 0.0000000000000000e+00 2.1000548538603336e-01 -1.2918506993938426e+01 0.0000000000000000e+00 2.3779487509755973e-01 -1.4820277292672138e+01 0.0000000000000000e+00 1.5598303584093229e-01 -1.9510529099901987e+01 0.0000000000000000e+00 1.6733604541774535e-01 -1.9540001589323577e+01 0.0000000000000000e+00 1.1430482240382916e-01 -1.9543047115395787e+01 0.0000000000000000e+00 2.0514536367735650e-01 -1.9468971808621585e+01 0.0000000000000000e+00 4.8030145196539711e-02 -2.0094979995255869e+01 0.0000000000000000e+00 -2.6616355056297860e-02 -1.9431103000440928e+01 0.0000000000000000e+00 1.3317870046138347e-01 -2.0614384526350253e+01 0.0000000000000000e+00 2.2966560747386530e-01 -2.0959605675194620e+01 0.0000000000000000e+00 3.2897584290077064e-01 -2.1129777301615395e+01 0.0000000000000000e+00 -1.1497604736062975e-01 -1.8605372189958331e+01 0.0000000000000000e+00 -2.1002007741812256e-01 -1.7626430386143550e+01 0.0000000000000000e+00 4.1675649846686430e-01 -8.1111124657612130e+00 0.0000000000000000e+00 3.4865037182849401e-01 -5.5336920847979378e+00 0.0000000000000000e+00 2.1443280881599328e-01 -2.8875530309451940e+00 0.0000000000000000e+00 0.0000000000000000e+00 0.0000000000000000e+00 0.0000000000000000e+00 -3.2204482432771248e-01 -1.5154562743061044e+01 0.0000000000000000e+00 -3.0421676843238565e-01 -1.6491538099847563e+01 0.0000000000000000e+00 -3.8484874269270603e-01 -1.3647904527497788e+01 0.0000000000000000e+00 -4.2865135090033857e-01 -1.1927614778948941e+01 0.0000000000000000e+00 -4.4383017029731481e-01 -1.0003624516823740e+01 0.0000000000000000e+00 -4.2015531514235438e-01 -7.8613176925076127e+00 0.0000000000000000e+00 -3.4664903131692459e-01 -5.4848077428840281e+00 0.0000000000000000e+00 -2.1124676075873730e-01 -2.8659890591323136e+00 0.0000000000000000e+00 0.0000000000000000e+00 0.0000000000000000e+00 0.0000000000000000e+00 0.0000000000000000e+00 -1.9370226166761984e+01 0.0000000000000000e+00 0.0000000000000000e+00 -1.8916243775696103e+01 0.0000000000000000e+00 0.0000000000000000e+00 -1.8135770361681455e+01 0.0000000000000000e+00 1.8672638030078983e-01 -1.9475673075180143e+01 0.0000000000000000e+00 2.5664859217783520e-01 -1.6403676413239083e+01 0.0000000000000000e+00 2.6815021767211261e-01 -1.7666671270344583e+01 0.0000000000000000e+00 3.9203699981484186e-01 -1.1878983177579480e+01 0.0000000000000000e+00 5.3963100159614474e-01 -1.0747872282830912e+01 0.0000000000000000e+00 4.5735561241408568e-01 -1.3920292935645362e+01 0.0000000000000000e+00 5.0390821050087531e-01 -1.5660548716284634e+01 0.0000000000000000e+00 2.8626791285228886e-01 -1.9534035557181575e+01 0.0000000000000000e+00 2.9308733810511267e-01 -1.9544323999139124e+01 0.0000000000000000e+00 3.8309268598854090e-01 -1.9476688554513196e+01 0.0000000000000000e+00 6.1455833961867323e-02 -2.0131175432572665e+01 0.0000000000000000e+00 -3.2598151946389105e-02 -1.9476495715359572e+01 0.0000000000000000e+00 1.6975534159855460e-01 -2.0662306139990530e+01 0.0000000000000000e+00 2.9328538332493609e-01 -2.1024208647481395e+01 0.0000000000000000e+00 4.2348901144153517e-01 -2.1216623993069991e+01 0.0000000000000000e+00 -1.4136841182967053e-01 -1.8659092999257251e+01 0.0000000000000000e+00 -2.5545365142188842e-01 -1.7686429018208369e+01 0.0000000000000000e+00 6.6152099662714969e-01 -9.9379678113626380e+00 0.0000000000000000e+00 0.0000000000000000e+00 0.0000000000000000e+00 0.0000000000000000e+00 6.0959741578065840e-01 -8.0178267251460618e+00 0.0000000000000000e+00 4.8723294638059128e-01 -5.5594072811018558e+00 0.0000000000000000e+00 2.8805859841647208e-01 -2.8945063386895393e+00 0.0000000000000000e+00 -3.9078013813567919e-01 -1.5181082387977948e+01 0.0000000000000000e+00 -3.6556858323680130e-01 -1.6556733569744559e+01 0.0000000000000000e+00 -4.6217729638563582e-01 -1.3674456017026737e+01 0.0000000000000000e+00 -5.0870265403262316e-01 -1.1971453053152299e+01 0.0000000000000000e+00 -5.2058116376339114e-01 -1.0059189015774571e+01 0.0000000000000000e+00 0.0000000000000000e+00 0.0000000000000000e+00 0.0000000000000000e+00 -4.8752859168185914e-01 -7.9123816383895162e+00 0.0000000000000000e+00 -3.9844561651511406e-01 -5.5233031376363542e+00 0.0000000000000000e+00 -2.4087313807608624e-01 -2.8867021474093510e+00 0.0000000000000000e+00 2.4958844182512832e-01 -1.9207009950548539e+01 0.0000000000000000e+00 2.7326546709525418e-01 -1.8604566776050234e+01 0.0000000000000000e+00 4.7521655228825077e-01 -1.9432078688526566e+01 0.0000000000000000e+00 5.3680722200464581e-01 -1.7099847957258209e+01 0.0000000000000000e+00 5.5321669640017479e-01 -1.8213089691091152e+01 0.0000000000000000e+00 6.4846536087882856e-01 -1.2939047354259779e+01 0.0000000000000000e+00 8.0833689778509543e-01 -1.1873485424460696e+01 0.0000000000000000e+00 7.3583220437329466e-01 -1.4816001878119302e+01 0.0000000000000000e+00 7.9250655668239911e-01 -1.6382152254247664e+01 0.0000000000000000e+00 5.3616541537573759e-01 -1.9558206538951286e+01 0.0000000000000000e+00 7.2493453329601532e-01 -1.9482830319523149e+01 0.0000000000000000e+00 6.8662871458647101e-01 -1.9486662442732779e+01 0.0000000000000000e+00 7.7195073805088749e-02 -2.0186084722738876e+01 0.0000000000000000e+00 -4.0537973950111744e-02 -1.9539377260300842e+01 0.0000000000000000e+00 2.1306045645139113e-01 -2.0734137838267543e+01 0.0000000000000000e+00 3.7002434678823387e-01 -2.1118533893101226e+01 0.0000000000000000e+00 5.4012786543537050e-01 -2.1339994304753354e+01 0.0000000000000000e+00 -1.7371046303023860e-01 -1.8725114912802589e+01 0.0000000000000000e+00 -3.0663057547700573e-01 -1.7771629287882920e+01 0.0000000000000000e+00 9.1920787640833668e-01 -1.0461240614166313e+01 0.0000000000000000e+00 0.0000000000000000e+00 0.0000000000000000e+00 0.0000000000000000e+00 3.6505208531342059e-01 -2.8796617863207188e+00 0.0000000000000000e+00 8.0493764836782422e-01 -7.9889352497624389e+00 0.0000000000000000e+00 6.2857045733496397e-01 -5.5232965845966611e+00 0.0000000000000000e+00 -4.6425916759994640e-01 -1.5250947926599933e+01 0.0000000000000000e+00 -4.2843958296522067e-01 -1.6674391589796752e+01 0.0000000000000000e+00 -5.4301903082421243e-01 -1.3743454509463717e+01 0.0000000000000000e+00 -5.8962416930554118e-01 -1.2075675902810740e+01 0.0000000000000000e+00 -5.9581666171258019e-01 -1.0150051894080402e+01 0.0000000000000000e+00 0.0000000000000000e+00 0.0000000000000000e+00 0.0000000000000000e+00 -2.6698434944107807e-01 -2.9135797595074928e+00 0.0000000000000000e+00 -5.5133365442152804e-01 -7.9841846641254985e+00 0.0000000000000000e+00 -4.4576109327281604e-01 -5.5743497497229724e+00 0.0000000000000000e+00 5.8481514491392084e-01 -1.8999154876724635e+01 0.0000000000000000e+00 7.4073814102427094e-01 -1.9320369819178286e+01 0.0000000000000000e+00 8.2787837568174594e-01 -1.7618429068787698e+01 0.0000000000000000e+00 8.5962605047125151e-01 -1.8525750386660647e+01 0.0000000000000000e+00 9.4151744232513446e-01 -1.3902526085466608e+01 0.0000000000000000e+00 1.1009798809787668e+00 -1.2959897037943758e+01 0.0000000000000000e+00 1.0415405944708132e+00 -1.5608695102416419e+01 0.0000000000000000e+00 1.0943354709887454e+00 -1.6991678052367174e+01 0.0000000000000000e+00 9.0024077297688043e-01 -1.9417915288383703e+01 0.0000000000000000e+00 9.1797491806770615e-01 -1.9557500562598793e+01 0.0000000000000000e+00 1.0872391512746000e+00 -1.9487771242867399e+01 0.0000000000000000e+00 9.4442318980879403e-02 -2.0267313610728330e+01 0.0000000000000000e+00 -5.1752465731009348e-02 -1.9629530824459536e+01 0.0000000000000000e+00 2.6287303027484854e-01 -2.0839367815008007e+01 0.0000000000000000e+00 4.6070898329701893e-01 -2.1253881167658768e+01 0.0000000000000000e+00 6.7999800477395222e-01 -2.1510934770531936e+01 0.0000000000000000e+00 -2.1212391386359747e-01 -1.8821603859567087e+01 0.0000000000000000e+00 -3.6281620744332613e+03 7.5272675284801301e+02 0.0000000000000000e+00 -3.9343399982015130e+03 7.1942907519248001e+02 0.0000000000000000e+00 -3.6379040524266631e-01 -1.7899898738605302e+01 0.0000000000000000e+00 1.3690158606999066e+00 -1.3558221157537366e+01 0.0000000000000000e+00 1.2693285473061171e+00 -1.2095392684466281e+01 0.0000000000000000e+00 1.1572184787810056e+00 -1.0052998093311889e+01 0.0000000000000000e+00 0.0000000000000000e+00 0.0000000000000000e+00 0.0000000000000000e+00 4.4735796320258087e-01 -2.8661772229287412e+00 0.0000000000000000e+00 7.7894327223227433e-01 -5.4856592292853197e+00 0.0000000000000000e+00 1.0084655830891724e+00 -7.8692524739088965e+00 0.0000000000000000e+00 -5.4233209286459194e-01 -1.5348235797750883e+01 0.0000000000000000e+00 -4.8684548546388290e-01 -1.6772459374783725e+01 0.0000000000000000e+00 -6.2159851525517928e-01 -1.3960146509754935e+01 0.0000000000000000e+00 -6.6590262926487254e-01 -1.2227478948522561e+01 0.0000000000000000e+00 -6.6328220104823854e-01 -1.0266991670157390e+01 0.0000000000000000e+00 0.0000000000000000e+00 0.0000000000000000e+00 0.0000000000000000e+00 -2.8627689900232661e-01 -2.9477462240879473e+00 0.0000000000000000e+00 -4.8331722425272350e-01 -5.6399474767649815e+00 0.0000000000000000e+00 -6.0535246980398771e-01 -8.0768951263315891e+00 0.0000000000000000e+00 9.5855787269462278e-01 -1.9124407390501062e+01 0.0000000000000000e+00 1.1226001663503997e+00 -1.8034080641929993e+01 0.0000000000000000e+00 1.1433171159683369e+00 -1.8697577108092268e+01 0.0000000000000000e+00 1.2944558952211769e+00 -1.4733211788633451e+01 0.0000000000000000e+00 1.3670668696929229e+00 -1.6341280103159036e+01 0.0000000000000000e+00 1.4053250898682563e+00 -1.7524481704554752e+01 0.0000000000000000e+00 1.1606343060254427e+00 -1.9420305120692085e+01 0.0000000000000000e+00 1.3136122496380556e+00 -1.9556034184386942e+01 0.0000000000000000e+00 1.5008762670905018e+00 -1.9475270813538589e+01 0.0000000000000000e+00 -4.2201456706177087e+03 7.1708102062050830e+02 0.0000000000000000e+00 1.1178293687833411e-01 -2.0385485944315594e+01 0.0000000000000000e+00 -6.8234498652112147e-02 -1.9757772815445154e+01 0.0000000000000000e+00 3.1851265878327811e-01 -2.0990609220890249e+01 0.0000000000000000e+00 5.6608112154596146e-01 -2.1443387864184487e+01 0.0000000000000000e+00 8.4843399493139415e-01 -2.1744283598907643e+01 0.0000000000000000e+00 -2.6171385872732023e-01 -1.8929932232291979e+01 0.0000000000000000e+00 -2.5500947687362222e+03 8.7253641684736533e+02 0.0000000000000000e+00 -2.9416868574475266e+03 9.2276897900431959e+02 0.0000000000000000e+00 -3.3747333939376035e+03 7.4643723732425235e+02 0.0000000000000000e+00 -8.4621255850478099e+02 3.5578151099066218e+02 0.0000000000000000e+00 -1.9109077152638690e+03 3.7149130542750248e+02 0.0000000000000000e+00 -7.6457146242794329e+02 1.8455233970575867e+02 0.0000000000000000e+00 -1.5539500699771274e+03 4.0587893711535736e+02 0.0000000000000000e+00 -1.2451679881411671e+03 3.1595668897664359e+02 0.0000000000000000e+00 -5.6943309608652612e+02 1.1356131231165901e+02 0.0000000000000000e+00 -4.5672141528246279e-01 -1.7771540614876319e+01 0.0000000000000000e+00 1.5627913538134501e+00 -1.4530870251232372e+01 0.0000000000000000e+00 1.6013079100799199e+00 -1.3397896237597070e+01 0.0000000000000000e+00 1.5376160685794218e+00 -1.1815038887747978e+01 0.0000000000000000e+00 1.4184802592655148e+00 -9.9381868769068564e+00 0.0000000000000000e+00 0.0000000000000000e+00 0.0000000000000000e+00 0.0000000000000000e+00 5.3586173175871621e-01 -2.8596947034592559e+00 0.0000000000000000e+00 9.3897856421314219e-01 -5.4612514219471873e+00 0.0000000000000000e+00 1.2266380983491882e+00 -7.8236260796900758e+00 0.0000000000000000e+00 -6.0301403906066109e-01 -1.5875414766135687e+01 0.0000000000000000e+00 -5.8479137498330502e-01 -1.7048116720587640e+01 0.0000000000000000e+00 -6.9338468651346352e-01 -1.4154684914302909e+01 0.0000000000000000e+00 -7.3010285739368441e-01 -1.2384477311413569e+01 0.0000000000000000e+00 -7.1472284377003847e-01 -1.0410748573173993e+01 0.0000000000000000e+00 0.0000000000000000e+00 0.0000000000000000e+00 0.0000000000000000e+00 -2.9478704565827923e-01 -2.9899977638679713e+00 0.0000000000000000e+00 -5.0498549383598579e-01 -5.7278842108330341e+00 0.0000000000000000e+00 -6.4183365993186947e-01 -8.1961079549447611e+00 0.0000000000000000e+00 1.3280543779203142e+00 -1.9081873715254531e+01 0.0000000000000000e+00 1.4611218731280944e+00 -1.8468340147070567e+01 0.0000000000000000e+00 1.6387554678074467e+00 -1.5756595893695552e+01 0.0000000000000000e+00 1.6972942195903984e+00 -1.7005537628126856e+01 0.0000000000000000e+00 1.6957835370995296e+00 -1.7878811865929940e+01 0.0000000000000000e+00 1.5060410430135349e+00 -1.9400836841045571e+01 0.0000000000000000e+00 1.7059888759386383e+00 -1.9536798470104113e+01 0.0000000000000000e+00 1.9157153942540981e+00 -1.9450230736079984e+01 0.0000000000000000e+00 -2.4726003025157020e+03 5.0074449980399004e+02 0.0000000000000000e+00 -4.4411234717861817e+03 7.8659782106505588e+02 0.0000000000000000e+00 1.2739975086064337e-01 -2.0556293776432316e+01 0.0000000000000000e+00 -8.8997391053030894e-02 -1.9950851515523656e+01 0.0000000000000000e+00 1.0507816369313496e+00 -2.2059519220942640e+01 0.0000000000000000e+00 3.7853893985171272e-01 -2.1205682290009499e+01 0.0000000000000000e+00 6.8598764013896985e-01 -2.1704542095681198e+01 0.0000000000000000e+00 -3.0202482929043267e-01 -1.9172225497786439e+01 0.0000000000000000e+00 -6.4229670957555368e+02 1.5809621525291573e+02 0.0000000000000000e+00 -2.3329798453934401e+02 4.4574437685949754e+01 0.0000000000000000e+00 2.1093683211588594e+00 -2.5614034817423509e+01 0.0000000000000000e+00 2.1038400418534540e+00 -2.5906618178803839e+01 0.0000000000000000e+00 -5.2997200065587515e+02 2.0612927658584732e+02 0.0000000000000000e+00 2.0916456153759997e+00 -2.6201141114883047e+01 0.0000000000000000e+00 -2.1694722917463889e+02 5.3771717516870012e+01 0.0000000000000000e+00 -8.4150088935955552e+01 3.4377675785728385e+00 0.0000000000000000e+00 -1.2988647884472860e+02 4.6215531262226314e+01 0.0000000000000000e+00 -1.0476290253441790e+02 2.3305893544154120e+01 0.0000000000000000e+00 -5.4554628051914499e+01 -3.5254809926055173e+00 0.0000000000000000e+00 -4.8071872568587476e-01 -1.8289917520566444e+01 0.0000000000000000e+00 1.8917877312153748e+00 -1.4996716141435785e+01 0.0000000000000000e+00 1.9005937304223546e+00 -1.3399198892939383e+01 0.0000000000000000e+00 1.8357114237201928e+00 -1.1741978774490120e+01 0.0000000000000000e+00 1.6924935334264291e+00 -9.8837439194828711e+00 0.0000000000000000e+00 0.0000000000000000e+00 0.0000000000000000e+00 0.0000000000000000e+00 6.3069958099169610e-01 -2.8603578830589762e+00 0.0000000000000000e+00 1.1094529610858475e+00 -5.4507482835707819e+00 0.0000000000000000e+00 1.4569513422353566e+00 -7.7886185760916620e+00 0.0000000000000000e+00 -6.7829996101063761e-01 -1.5814363477609701e+01 0.0000000000000000e+00 -6.2710861393856343e-01 -1.7308124588800716e+01 0.0000000000000000e+00 -7.4988484234534170e-01 -1.4324115892549635e+01 0.0000000000000000e+00 -7.7191280449335709e-01 -1.2588332459551303e+01 0.0000000000000000e+00 -7.4010781258199676e-01 -1.0597335281423625e+01 0.0000000000000000e+00 0.0000000000000000e+00 0.0000000000000000e+00 0.0000000000000000e+00 -2.8804918979255800e-01 -3.0397187051138586e+00 0.0000000000000000e+00 -5.0266600936196915e-01 -5.8299580622785827e+00 0.0000000000000000e+00 -6.5151677647781803e-01 -8.3488024333216497e+00 0.0000000000000000e+00 1.6882168153939567e+00 -1.9031746222971162e+01 0.0000000000000000e+00 1.8522933807922377e+00 -1.8483745842568418e+01 0.0000000000000000e+00 2.2680076835261627e+00 -1.5844723004191776e+01 0.0000000000000000e+00 2.0640548312168434e+00 -1.6638221873382907e+01 0.0000000000000000e+00 2.0067746017268413e+00 -1.7764639495858763e+01 0.0000000000000000e+00 1.8956527768144829e+00 -1.9358769246469919e+01 0.0000000000000000e+00 2.1066370421269047e+00 -1.9504621339957069e+01 0.0000000000000000e+00 2.3269128922675146e+00 -1.9416588360045548e+01 0.0000000000000000e+00 -2.8426437227955812e+03 4.8198218631559160e+02 0.0000000000000000e+00 -1.1395071685376010e+03 1.9569909273881490e+02 0.0000000000000000e+00 -3.6189758740325669e+02 6.5424224907679545e+01 0.0000000000000000e+00 -4.5482770752749620e+03 7.1062159018871318e+02 0.0000000000000000e+00 -9.8189422270970326e+01 6.0614209965048218e+00 0.0000000000000000e+00 1.4506373447319437e-01 -2.0814829950270148e+01 0.0000000000000000e+00 -1.0464181358959017e-01 -2.0258262474650767e+01 0.0000000000000000e+00 1.2872675996864564e+00 -2.2474696791922540e+01 0.0000000000000000e+00 8.3013102460678112e-01 -2.2062459126761315e+01 0.0000000000000000e+00 4.4891664993952540e-01 -2.1515672549792246e+01 0.0000000000000000e+00 -3.3139832019473303e-01 -1.9545232221647360e+01 0.0000000000000000e+00 -3.2643703312259603e+01 -1.6552273764451758e+01 0.0000000000000000e+00 -1.0832773462703594e+01 -2.3578046630927133e+01 0.0000000000000000e+00 2.1008176928302942e+00 -2.5322984959122056e+01 0.0000000000000000e+00 1.8409260276748116e+00 -2.5720157177706977e+01 0.0000000000000000e+00 1.8302944774891536e+00 -2.5445474379860990e+01 0.0000000000000000e+00 2.0747834167344545e+00 -2.4979441553349520e+01 0.0000000000000000e+00 1.5405533881211728e+00 -2.3003619631432461e+01 0.0000000000000000e+00 2.0191645855082112e+00 -2.4571655070036794e+01 0.0000000000000000e+00 1.7590679754255523e+00 -2.3571436626777565e+01 0.0000000000000000e+00 1.9169498630410164e+00 -2.4100188769129982e+01 0.0000000000000000e+00 1.8479710056623984e+00 -2.6015345914603198e+01 0.0000000000000000e+00 1.6658304651174609e+00 -2.5847173914997217e+01 0.0000000000000000e+00 2.0682103229593554e+00 -2.6550783980260459e+01 0.0000000000000000e+00 1.8260480042430998e+00 -2.6320634750773365e+01 0.0000000000000000e+00 -8.5934493352649515e+00 -2.3026901301788318e+01 0.0000000000000000e+00 -1.5053800836688549e+00 -2.6771611040709814e+01 0.0000000000000000e+00 2.0588782487941248e+00 -2.6904560331730124e+01 0.0000000000000000e+00 2.0554855991253644e+00 -2.7280496572911623e+01 0.000