<?xml version='1.0' encoding='utf-8'?>
<VTKFile type="UnstructuredGrid" version="0.1" byte_order="LittleEndian"><UnstructuredGrid><Piece NumberOfPoints="14337" NumberOfCells="7026"><PointData><DataArray type="Float64" format="ascii" Name="displacement" NumberOfComponents="3">4.1216631670465320e+00 7.0355605121616660e-01 0.0000000000000000e+00 4.0132669337401756e+00 7.2257479584936624e-01 0.0000000000000000e+00 3.8934786048091947e+00 7.3277333817944923e-01 0.0000000000000000e+00 4.2143794894299074e+00 6.8034388301853699e-01 0.0000000000000000e+00 4.2996460425253451e+00 6.5222317943902264e-01 0.0000000000000000e+00 4.3749340503802214e+00 6.2720178170682328e-01 0.0000000000000000e+00 4.4459180997870558e+00 5.9491314609391588e-01 0.0000000000000000e+00 4.5649971428597702e+00 -1.0709430598824035e+00 0.0000000000000000e+00 4.5610579218613445e+00 -1.0880713388405499e+00 0.0000000000000000e+00 4.5690638315874850e+00 -1.0528554339367517e+00 0.0000000000000000e+00 4.5745079130149220e+00 -1.0336044185644282e+00 0.0000000000000000e+00 4.6090448493227996e+00 -9.6415554008020710e-01 0.0000000000000000e+00 4.5805320358020571e+00 -1.0139331166156187e+00 0.0000000000000000e+00 4.5867697174085871e+00 -9.9443885610846305e-01 0.0000000000000000e+00 4.5966947239403639e+00 -9.7891381918243736e-01 0.0000000000000000e+00 3.7536384530173819e+00 7.3992399110548224e-01 0.0000000000000000e+00 3.6027121602481249e+00 7.3177188554247474e-01 0.0000000000000000e+00 1.6540273636552483e+00 2.9338612238085349e-01 0.0000000000000000e+00 1.8410316650894145e+00 3.5625041966780374e-01 0.0000000000000000e+00 2.0362232254837722e+00 4.0457604849442313e-01 0.0000000000000000e+00 2.4313932785903596e+00 5.0894557834353527e-01 0.0000000000000000e+00 2.2300925253936885e+00 4.5811098425334285e-01 0.0000000000000000e+00 2.8404493198392164e+00 6.0763645101560593e-01 0.0000000000000000e+00 2.6336147298038215e+00 5.6252793360572295e-01 0.0000000000000000e+00 3.4296224917866174e+00 7.1503843696701863e-01 0.0000000000000000e+00 3.2403240212855708e+00 6.8894626363996270e-01 0.0000000000000000e+00 3.0430036934393034e+00 6.5318327620470551e-01 0.0000000000000000e+00 4.0672333419378335e+00 5.6913569787747964e-01 0.0000000000000000e+00 3.9598117576723832e+00 5.7680333655657612e-01 0.0000000000000000e+00 3.8141442685051232e+00 5.7546417780087622e-01 0.0000000000000000e+00 3.6704227714169093e+00 5.6750837988433789e-01 0.0000000000000000e+00 4.5590240828380022e+00 5.2619800708419018e-01 0.0000000000000000e+00 4.5081437686707098e+00 5.6309404762243787e-01 0.0000000000000000e+00 4.5931861924455681e+00 4.9141281264094511e-01 0.0000000000000000e+00 4.6279699029976458e+00 4.3811991439684644e-01 0.0000000000000000e+00 4.1843101443190500e+00 5.5783414929039343e-01 0.0000000000000000e+00 4.2682839570107589e+00 5.4084950554636879e-01 0.0000000000000000e+00 4.3594249930476430e+00 5.1921525261012702e-01 0.0000000000000000e+00 4.4256980556453343e+00 4.9118231871656109e-01 0.0000000000000000e+00 4.6356810091101490e+00 -9.2055757566118623e-01 0.0000000000000000e+00 4.6381346003316990e+00 -9.1386534811312159e-01 0.0000000000000000e+00 4.6566059759337843e+00 -8.3492690184172824e-01 0.0000000000000000e+00 4.5808120917466146e+00 -1.0670036136265941e+00 0.0000000000000000e+00 4.5570657178342522e+00 -1.1038543989894296e+00 0.0000000000000000e+00 4.5530144076198882e+00 -1.1187248189643328e+00 0.0000000000000000e+00 4.5489594751403759e+00 -1.1331386761934368e+00 0.0000000000000000e+00 4.5780345378062695e+00 -1.0845216993663793e+00 0.0000000000000000e+00 4.5712920628507021e+00 -1.0993285166354172e+00 0.0000000000000000e+00 4.6329445076224509e+00 -9.2755989000658501e-01 0.0000000000000000e+00 4.5877834495472181e+00 -1.0493466523881798e+00 0.0000000000000000e+00 4.6299749110763653e+00 -9.3491730710031073e-01 0.0000000000000000e+00 4.6216081362880592e+00 -9.5137798302070886e-01 0.0000000000000000e+00 4.6268602223738302e+00 -9.4264279662413919e-01 0.0000000000000000e+00 4.5902921318152652e+00 -1.0281133808585137e+00 0.0000000000000000e+00 4.6245222835495365e+00 -9.5916198011934073e-01 0.0000000000000000e+00 4.6120864267597597e+00 -9.7231622258178330e-01 0.0000000000000000e+00 4.5977485131170868e+00 -1.0097356942257754e+00 0.0000000000000000e+00 4.6042212126997848e+00 -9.8912287456788650e-01 0.0000000000000000e+00 1.4624164125759112e+00 2.3704355596628190e-01 0.0000000000000000e+00 3.9883662119063543e+00 4.6550531989090482e-01 0.0000000000000000e+00 3.4854487381585142e+00 5.4956283750408186e-01 0.0000000000000000e+00 3.3077105527234698e+00 5.2601387150636425e-01 0.0000000000000000e+00 1.3066841737966821e+00 6.8100315735539027e-02 0.0000000000000000e+00 1.4989035797167611e+00 1.2702339641829677e-01 0.0000000000000000e+00 1.6941111764911572e+00 1.7051699846624446e-01 0.0000000000000000e+00 1.8872791390958912e+00 2.2591499525590725e-01 0.0000000000000000e+00 2.2863371644097490e+00 3.2374427417874463e-01 0.0000000000000000e+00 2.0964571571497803e+00 2.7753581524005216e-01 0.0000000000000000e+00 2.6970609488840100e+00 4.1729947206323098e-01 0.0000000000000000e+00 2.5032519289120914e+00 3.7565329727698604e-01 0.0000000000000000e+00 3.0971986126630413e+00 4.8642197623183930e-01 0.0000000000000000e+00 2.8994864574967072e+00 4.5446356592812942e-01 0.0000000000000000e+00 3.7495692206214790e+00 4.0491174073840108e-01 0.0000000000000000e+00 3.6924158436085852e+00 4.5500803073816376e-01 0.0000000000000000e+00 3.3230303253575215e+00 4.0835783335761883e-01 0.0000000000000000e+00 3.3979888769485567e+00 3.7014550423996562e-01 0.0000000000000000e+00 4.6659141566968270e+00 3.4100162464343847e-01 0.0000000000000000e+00 4.6437306546443304e+00 4.0376891444912905e-01 0.0000000000000000e+00 4.6907273559525740e+00 2.1990120242971203e-01 0.0000000000000000e+00 4.6766120969217901e+00 3.0101996169502815e-01 0.0000000000000000e+00 4.6471483477916236e+00 -5.9654484292095500e-01 0.0000000000000000e+00 4.6408108540593718e+00 -5.3224824419542227e-01 0.0000000000000000e+00 4.6444048683642087e+00 -4.8956489472600662e-01 0.0000000000000000e+00 4.6549882638504778e+00 -3.9996470059925404e-01 0.0000000000000000e+00 4.6479749660983227e+00 -4.3792034700467447e-01 0.0000000000000000e+00 4.6671676551886492e+00 -3.1120837866230289e-01 0.0000000000000000e+00 4.6613141951754287e+00 -3.5658963623690237e-01 0.0000000000000000e+00 4.6747091244188299e+00 -2.6632221607889633e-01 0.0000000000000000e+00 4.6814549777310175e+00 -2.1634896812864235e-01 0.0000000000000000e+00 4.6827765903443419e+00 -1.4120320452816160e-01 0.0000000000000000e+00 4.6930507407477178e+00 -9.3095980040445267e-02 0.0000000000000000e+00 4.6926133002474302e+00 1.5200700663300040e-01 0.0000000000000000e+00 4.6904666840423808e+00 -8.0108217985960586e-03 0.0000000000000000e+00 4.6979254558705730e+00 5.3942030058860162e-02 0.0000000000000000e+00 4.6556287048361753e+00 -7.8836030591668504e-01 0.0000000000000000e+00 4.6520237795441259e+00 -7.6033140121778109e-01 0.0000000000000000e+00 4.6502876827933708e+00 -7.3608266849409143e-01 0.0000000000000000e+00 4.6466689138550716e+00 -6.3520935893755703e-01 0.0000000000000000e+00 4.6465424873859114e+00 -6.7081649817551259e-01 0.0000000000000000e+00 4.6483155037299371e+00 -7.0382195619847687e-01 0.0000000000000000e+00 4.5461413785117681e+00 4.4633110580569252e-01 0.0000000000000000e+00 4.4945719157958237e+00 4.7289711683374702e-01 0.0000000000000000e+00 4.6009388964694065e+00 4.1128462716264591e-01 0.0000000000000000e+00 4.6294553611112788e+00 3.8166570360935376e-01 0.0000000000000000e+00 4.2172900042908061e+00 4.5331016655994827e-01 0.0000000000000000e+00 4.0541053308093815e+00 4.2746019593530460e-01 0.0000000000000000e+00 4.3802107027465453e+00 4.1874923341739811e-01 0.0000000000000000e+00 4.2557570899196007e+00 3.9769197073018209e-01 0.0000000000000000e+00 4.6504274144292141e+00 -8.7410044675887277e-01 0.0000000000000000e+00 4.6493679716088936e+00 -8.7792211377076590e-01 0.0000000000000000e+00 4.6479597604698331e+00 -8.8294419464223350e-01 0.0000000000000000e+00 4.6394656303864119e+00 -9.2546182912658026e-01 0.0000000000000000e+00 4.6408550243508904e+00 -9.1903872882040760e-01 0.0000000000000000e+00 4.6462549618858962e+00 -8.8885735449563719e-01 0.0000000000000000e+00 4.6444156263090353e+00 -8.9495817815661927e-01 0.0000000000000000e+00 4.6429069817303850e+00 -9.1346313320692774e-01 0.0000000000000000e+00 4.6403682853149943e+00 -9.0740679776101318e-01 0.0000000000000000e+00 4.6424568419173138e+00 -9.0112253568089273e-01 0.0000000000000000e+00 4.6442300499873763e+00 -9.0554751175743597e-01 0.0000000000000000e+00 4.6565046263851970e+00 -8.0454176237159070e-01 0.0000000000000000e+00 4.6574684116144764e+00 -8.2758174866892975e-01 0.0000000000000000e+00 4.6578132023558707e+00 -8.1904914740770907e-01 0.0000000000000000e+00 4.6559132364488658e+00 -8.4226391026930103e-01 0.0000000000000000e+00 4.6558137312047858e+00 -8.5029292035813664e-01 0.0000000000000000e+00 4.6616864717751456e+00 -8.4163200255166692e-01 0.0000000000000000e+00 4.6624784424492809e+00 -8.3392895149081936e-01 0.0000000000000000e+00 4.4743326658780136e+00 -1.2835989269843935e+00 0.0000000000000000e+00 4.5038507433928938e+00 -1.2586477869822166e+00 0.0000000000000000e+00 4.6012781900450541e+00 -1.0532203215835454e+00 0.0000000000000000e+00 4.5943089624292037e+00 -1.0636862796581945e+00 0.0000000000000000e+00 4.5906413414116303e+00 -1.0763007377947860e+00 0.0000000000000000e+00 4.5148811047012307e+00 -1.2425199242251521e+00 0.0000000000000000e+00 4.5197079132411169e+00 -1.2288297698371777e+00 0.0000000000000000e+00 4.5240844829746640e+00 -1.2153295532490052e+00 0.0000000000000000e+00 4.5449122558038582e+00 -1.1472453309302075e+00 0.0000000000000000e+00 4.5408492171977706e+00 -1.1611278511438712e+00 0.0000000000000000e+00 4.5283941797706220e+00 -1.2018670540000764e+00 0.0000000000000000e+00 4.5326163849154950e+00 -1.1883900110033114e+00 0.0000000000000000e+00 4.5367589609010857e+00 -1.1748299658378949e+00 0.0000000000000000e+00 4.5667799662958739e+00 -1.1147192356379592e+00 0.0000000000000000e+00 4.5643889770540884e+00 -1.1302436177334581e+00 0.0000000000000000e+00 4.5575402712464967e+00 -1.1438232500601078e+00 0.0000000000000000e+00 4.5906869427011081e+00 -1.0875602274271254e+00 0.0000000000000000e+00 4.5847230773986976e+00 -1.0968056075823125e+00 0.0000000000000000e+00 4.5816270423763559e+00 -1.1109003614021966e+00 0.0000000000000000e+00 4.6361899518273644e+00 -9.3225679110533377e-01 0.0000000000000000e+00 4.6419406942299881e+00 -9.3059773967616977e-01 0.0000000000000000e+00 4.6015810154733590e+00 -1.0406234108130372e+00 0.0000000000000000e+00 4.6109620287254449e+00 -1.0486824346467623e+00 0.0000000000000000e+00 4.6346061392380333e+00 -9.4022775215958021e-01 0.0000000000000000e+00 4.6309079886564346e+00 -9.4949795122263636e-01 0.0000000000000000e+00 4.6044495481237977e+00 -1.0262988283985395e+00 0.0000000000000000e+00 4.6328745890870522e+00 -9.5543424540854194e-01 0.0000000000000000e+00 4.6113533286811075e+00 -1.0146277856141233e+00 0.0000000000000000e+00 4.6307630226427801e+00 -9.6028852626467431e-01 0.0000000000000000e+00 4.6239717380479917e+00 -9.6757396093512049e-01 0.0000000000000000e+00 4.6181690174802030e+00 -9.7956222628610767e-01 0.0000000000000000e+00 4.6129327434548895e+00 -1.0025107940683322e+00 0.0000000000000000e+00 4.6185355068130356e+00 -9.9155921948024461e-01 0.0000000000000000e+00 4.4265423533801433e+00 -1.3203413822916288e+00 0.0000000000000000e+00 4.3444176985830874e+00 -1.3771344413140001e+00 0.0000000000000000e+00 4.2207544807126220e+00 -1.4620676019685492e+00 0.0000000000000000e+00 1.1273863820800649e+00 1.2075000493033509e-02 0.0000000000000000e+00 1.2725152527202435e+00 1.6953032327341899e-01 0.0000000000000000e+00 3.6602961403795242e+00 3.1040984755228596e-01 0.0000000000000000e+00 9.2813072470550706e-01 -1.0884144992974103e-01 0.0000000000000000e+00 6.9021867070733123e-01 -1.9367015817793068e-01 0.0000000000000000e+00 2.9922836041044043e+00 3.1473541649133602e-01 0.0000000000000000e+00 2.9171589618300042e+00 3.4936293135445612e-01 0.0000000000000000e+00 9.7448270771261747e-01 -1.0864093298269471e-01 0.0000000000000000e+00 1.2821424570654973e+00 -1.6341209827786692e-02 0.0000000000000000e+00 1.3583519822005463e+00 -1.4756882118655074e-02 0.0000000000000000e+00 1.7050224010691220e+00 9.8422625805078504e-02 0.0000000000000000e+00 2.1163594078899002e+00 1.9781853792826071e-01 0.0000000000000000e+00 1.7998669325240693e+00 9.4944239946823855e-02 0.0000000000000000e+00 2.4968789285472286e+00 2.7248326476555973e-01 0.0000000000000000e+00 2.2003931659065294e+00 1.8384443571812253e-01 0.0000000000000000e+00 2.5543159055599958e+00 2.3398921193806860e-01 0.0000000000000000e+00 3.2259805379353148e+00 2.0076439167691065e-01 0.0000000000000000e+00 3.1110605021650977e+00 2.0444678226711563e-01 0.0000000000000000e+00 2.8754154380533770e+00 2.1637594426888362e-01 0.0000000000000000e+00 2.7760781604959321e+00 1.5364537934312134e-01 0.0000000000000000e+00 4.6812526937494612e+00 2.9019491491043986e-01 0.0000000000000000e+00 4.6660205232256189e+00 3.2665999755048125e-01 0.0000000000000000e+00 4.7235014385568670e+00 1.4178553839668290e-01 0.0000000000000000e+00 4.7109635469859565e+00 2.1137551675009594e-01 0.0000000000000000e+00 4.6732327457083631e+00 -5.9677351875889906e-01 0.0000000000000000e+00 4.6686067633066273e+00 -6.3196292105452667e-01 0.0000000000000000e+00 4.6738983712111279e+00 -5.2613748312011066e-01 0.0000000000000000e+00 4.6775198373352378e+00 -4.8436524162394395e-01 0.0000000000000000e+00 4.6891530336142582e+00 -3.9298048807018149e-01 0.0000000000000000e+00 4.6826878477064096e+00 -4.2967789188676797e-01 0.0000000000000000e+00 4.7061262669338433e+00 -3.0553003448848998e-01 0.0000000000000000e+00 4.6977163597454332e+00 -3.4777438415013368e-01 0.0000000000000000e+00 4.7153005058636319e+00 -2.5571380057508453e-01 0.0000000000000000e+00 4.7241148166571358e+00 -2.1374360808308057e-01 0.0000000000000000e+00 4.7277363480228720e+00 -1.3533710180266945e-01 0.0000000000000000e+00 4.7369534937346804e+00 -8.7586059260716650e-02 0.0000000000000000e+00 4.7376399292580853e+00 5.5608552257743200e-02 0.0000000000000000e+00 4.7367020903931651e+00 -9.1060983707919891e-03 0.0000000000000000e+00 4.6658542344545131e+00 -7.8861313637591823e-01 0.0000000000000000e+00 4.6655483821065431e+00 -8.0552058834233231e-01 0.0000000000000000e+00 4.6651824607870811e+00 -7.6393611397398553e-01 0.0000000000000000e+00 4.6660469872850232e+00 -7.3568022001562017e-01 0.0000000000000000e+00 4.6736173060624164e+00 -7.8587077676488559e-01 0.0000000000000000e+00 4.6688354173293671e+00 -6.6939897360250644e-01 0.0000000000000000e+00 4.6666870809389396e+00 -7.0471150510645963e-01 0.0000000000000000e+00 4.6779903230389586e+00 -7.3088661558409451e-01 0.0000000000000000e+00 4.6832688896091268e+00 -6.6235968257702738e-01 0.0000000000000000e+00 4.5144962239228477e+00 3.6862819049810031e-01 0.0000000000000000e+00 4.4071710172655703e+00 3.6482185487384211e-01 0.0000000000000000e+00 4.6150442717008779e+00 3.0230708898987946e-01 0.0000000000000000e+00 4.5374775563938874e+00 3.2460307542862177e-01 0.0000000000000000e+00 3.9355647794274811e+00 3.1534561047919890e-01 0.0000000000000000e+00 3.6285951409633608e+00 2.4871132659940171e-01 0.0000000000000000e+00 4.1708835318836428e+00 3.1750444323945065e-01 0.0000000000000000e+00 3.9069410309315096e+00 2.5724532440827041e-01 0.0000000000000000e+00 4.6549896419687995e+00 -8.5598980255655976e-01 0.0000000000000000e+00 4.6538947684983789e+00 -8.6081051919109119e-01 0.0000000000000000e+00 4.6515556114710561e+00 -8.7001535257519824e-01 0.0000000000000000e+00 4.6527414179593478e+00 -8.6545727821239493e-01 0.0000000000000000e+00 4.6524003308508224e+00 -8.7376351495737914e-01 0.0000000000000000e+00 4.6515191405071272e+00 -8.8060265019442907e-01 0.0000000000000000e+00 4.6531513281222061e+00 -8.7709829066289002e-01 0.0000000000000000e+00 4.6520183508821287e+00 -8.8338497087718493e-01 0.0000000000000000e+00 4.6510048454608324e+00 -8.8643984677167109e-01 0.0000000000000000e+00 4.6439376428876091e+00 -9.2644821487200479e-01 0.0000000000000000e+00 4.6441727143971718e+00 -9.2229176705847282e-01 0.0000000000000000e+00 4.6452511550504187e+00 -9.1758309542165117e-01 0.0000000000000000e+00 4.6514757281455257e+00 -8.9016197070409953e-01 0.0000000000000000e+00 4.6466099201657203e+00 -9.1390455824151262e-01 0.0000000000000000e+00 4.6496966251857144e+00 -8.9333148908205451e-01 0.0000000000000000e+00 4.6497158242191956e+00 -8.9695509225181391e-01 0.0000000000000000e+00 4.6476793937191978e+00 -9.0016610571303879e-01 0.0000000000000000e+00 4.6460849055145177e+00 -9.0920315789960449e-01 0.0000000000000000e+00 4.6472394345098555e+00 -9.0409243319004928e-01 0.0000000000000000e+00 4.6648192883900244e+00 -8.1843580882567935e-01 0.0000000000000000e+00 4.6635602583719438e+00 -8.2665628898315779e-01 0.0000000000000000e+00 4.6704782083941732e+00 -8.1648106980895852e-01 0.0000000000000000e+00 4.6673756858802387e+00 -8.3220671680322622e-01 0.0000000000000000e+00 4.6607570360582482e+00 -8.4975901027722045e-01 0.0000000000000000e+00 4.6596062658479456e+00 -8.5483982676906278e-01 0.0000000000000000e+00 4.6646923366091961e+00 -8.4839475532265041e-01 0.0000000000000000e+00 4.6676400888737168e+00 -8.4162212872778597e-01 0.0000000000000000e+00 4.4860148054264002e+00 -1.3001438905967995e+00 0.0000000000000000e+00 4.5107542483223506e+00 -1.2714317405229258e+00 0.0000000000000000e+00 4.5253173350306293e+00 -1.2530148780662063e+00 0.0000000000000000e+00 4.6064686080583757e+00 -1.0609053128803674e+00 0.0000000000000000e+00 4.6175730628559801e+00 -1.0558971500103009e+00 0.0000000000000000e+00 4.6024463903862856e+00 -1.0720803648085575e+00 0.0000000000000000e+00 4.5996418524415139e+00 -1.0833927138154202e+00 0.0000000000000000e+00 4.5288466988853804e+00 -1.2384988040268743e+00 0.0000000000000000e+00 4.5347208186969770e+00 -1.2253155847807429e+00 0.0000000000000000e+00 4.5369765571989538e+00 -1.2114754930493921e+00 0.0000000000000000e+00 4.5553776483064929e+00 -1.1592041690041510e+00 0.0000000000000000e+00 4.5492482475879887e+00 -1.1721256796486343e+00 0.0000000000000000e+00 4.5403557750599726e+00 -1.1989322535298208e+00 0.0000000000000000e+00 4.5466843946344522e+00 -1.1867050749726387e+00 0.0000000000000000e+00 4.5762808109242679e+00 -1.1227728948802544e+00 0.0000000000000000e+00 4.5759397210918005e+00 -1.1337477245613572e+00 0.0000000000000000e+00 4.5699661455646607e+00 -1.1424006703963454e+00 0.0000000000000000e+00 4.5669558460367838e+00 -1.1527961122690829e+00 0.0000000000000000e+00 4.5958545440956193e+00 -1.0942683622395646e+00 0.0000000000000000e+00 4.5928088434473837e+00 -1.1034062454149343e+00 0.0000000000000000e+00 4.5927005597195354e+00 -1.1130988157375707e+00 0.0000000000000000e+00 4.5878891833436111e+00 -1.1209111789570763e+00 0.0000000000000000e+00 4.6461748927439661e+00 -9.2948634250830076e-01 0.0000000000000000e+00 4.6404851337003263e+00 -9.3617391890223078e-01 0.0000000000000000e+00 4.6452193389747150e+00 -9.3415588968145913e-01 0.0000000000000000e+00 4.6404972068499042e+00 -9.4119297963655035e-01 0.0000000000000000e+00 4.6216669033748747e+00 -1.0439703965266351e+00 0.0000000000000000e+00 4.6134829585459638e+00 -1.0359452524323600e+00 0.0000000000000000e+00 4.6384159320780798e+00 -9.4585189249033919e-01 0.0000000000000000e+00 4.6371478582222361e+00 -9.5180975627094677e-01 0.0000000000000000e+00 4.6176082801146991e+00 -1.0234970677671602e+00 0.0000000000000000e+00 4.6365285497235806e+00 -9.5733234109780574e-01 0.0000000000000000e+00 4.6211034872130181e+00 -1.0110244249427496e+00 0.0000000000000000e+00 4.6331112229769253e+00 -9.6417601253571794e-01 0.0000000000000000e+00 4.6291772263980642e+00 -9.7471328479098196e-01 0.0000000000000000e+00 4.6266929215302426e+00 -9.8722560002221504e-01 0.0000000000000000e+00 4.6241599127499668e+00 -9.9903244353647147e-01 0.0000000000000000e+00 0.0000000000000000e+00 -9.2553775839517266e-02 0.0000000000000000e+00 0.0000000000000000e+00 -9.7444230065932433e-02 0.0000000000000000e+00 4.4326166057837728e+00 -1.3428964516713049e+00 0.0000000000000000e+00 4.3605111984993110e+00 -1.4151922356096522e+00 0.0000000000000000e+00 4.0913256815806678e+00 -1.5752247147102740e+00 0.0000000000000000e+00 4.2421209826616053e+00 -1.5158546031102103e+00 0.0000000000000000e+00 3.9839136307268186e+00 -1.6942180446931985e+00 0.0000000000000000e+00 3.8642196179000430e+00 -1.8370054219870460e+00 0.0000000000000000e+00 3.5992745814656906e+00 -2.0774586156273132e+00 0.0000000000000000e+00 9.3501894246565254e-01 -5.2458157739978722e-02 0.0000000000000000e+00 6.3853076116251550e-01 -2.0478459310914571e-01 0.0000000000000000e+00 1.0853338848611780e+00 1.0365388609249410e-01 0.0000000000000000e+00 2.8904627470602899e+00 8.0222586097630375e-02 0.0000000000000000e+00 2.3978000203066863e+00 9.0797872491926862e-02 0.0000000000000000e+00 4.4702212541408487e-01 -2.8746095263433186e-01 0.0000000000000000e+00 6.0160689812226331e-01 -2.4049546024592169e-01 0.0000000000000000e+00 4.6228970749185694e-01 -2.8993794417907348e-01 0.0000000000000000e+00 5.3433471082862849e-01 -2.7976305350886005e-01 0.0000000000000000e+00 2.2576464985866473e+00 8.0873008493189430e-02 0.0000000000000000e+00 7.8688301447337716e-01 -2.0063069869838521e-01 0.0000000000000000e+00 8.4140787448289445e-01 -1.9492272430811675e-01 0.0000000000000000e+00 1.1685645869674224e+00 -1.0900108025229768e-01 0.0000000000000000e+00 1.6915223079118580e+00 2.1677285177294232e-02 0.0000000000000000e+00 1.2772821850148217e+00 -9.3946592591671013e-02 0.0000000000000000e+00 2.0204137120314063e+00 7.6782403896324486e-02 0.0000000000000000e+00 1.6513528528622663e+00 -1.2048819688492720e-02 0.0000000000000000e+00 1.8843086556684672e+00 1.2433305490644675e-02 0.0000000000000000e+00 2.3124852044076207e+00 -2.2417783299579976e-02 0.0000000000000000e+00 2.1866719833569115e+00 -2.6805726601565147e-02 0.0000000000000000e+00 2.0686876886625956e+00 -2.4888182468389183e-02 0.0000000000000000e+00 4.6837332096168920e+00 2.0180084836462131e-01 0.0000000000000000e+00 4.6328952278874969e+00 2.5082271322874067e-01 0.0000000000000000e+00 4.7360375437534321e+00 5.3996461941732257e-02 0.0000000000000000e+00 4.7013171837712928e+00 1.0823984098712314e-01 0.0000000000000000e+00 4.6910531246789233e+00 -5.9043777824200938e-01 0.0000000000000000e+00 4.6927812154766242e+00 -6.2737503970526753e-01 0.0000000000000000e+00 4.7013083321434941e+00 -4.7817513812313084e-01 0.0000000000000000e+00 4.7023026458095210e+00 -5.2531903207491604e-01 0.0000000000000000e+00 4.7161677443944345e+00 -3.8482450773076166e-01 0.0000000000000000e+00 4.7166528527441871e+00 -4.2448752801899270e-01 0.0000000000000000e+00 4.7361656018802671e+00 -2.9803224176359944e-01 0.0000000000000000e+00 4.7345549573960817e+00 -3.4299660824588968e-01 0.0000000000000000e+00 4.7511640371349184e+00 -2.5242274925886604e-01 0.0000000000000000e+00 4.7501340624464374e+00 -2.1016030111651329e-01 0.0000000000000000e+00 4.7598017307723710e+00 -1.4584745561532783e-01 0.0000000000000000e+00 4.7557057434475780e+00 -8.4193492190774627e-02 0.0000000000000000e+00 4.7486301234270041e+00 -3.3677632068629865e-02 0.0000000000000000e+00 4.6747329433924776e+00 -8.0644868697730265e-01 0.0000000000000000e+00 4.6800287801816847e+00 -7.6707680850117443e-01 0.0000000000000000e+00 4.6824721395878841e+00 -7.8987207650851476e-01 0.0000000000000000e+00 4.6856981075484070e+00 -7.0640080849283837e-01 0.0000000000000000e+00 4.6882649554029161e+00 -7.3937971725570195e-01 0.0000000000000000e+00 4.6984280238309761e+00 -6.7305811787035585e-01 0.0000000000000000e+00 4.3415988736094029e+00 2.8596772471973891e-01 0.0000000000000000e+00 4.1358525215408735e+00 2.3807574487562466e-01 0.0000000000000000e+00 4.4864984256401268e+00 2.2972288490624385e-01 0.0000000000000000e+00 4.3160354623937387e+00 2.0577281168815972e-01 0.0000000000000000e+00 3.1546195672497066e+00 8.9526593619187411e-02 0.0000000000000000e+00 3.4790485914793670e+00 1.0938271323321626e-01 0.0000000000000000e+00 4.6554481874396334e+00 -8.7186547476817899e-01 0.0000000000000000e+00 4.6582314433419985e+00 -8.5976309878281687e-01 0.0000000000000000e+00 4.6569396549003157e+00 -8.6409119639166676e-01 0.0000000000000000e+00 4.6560026580919613e+00 -8.6789338519478498e-01 0.0000000000000000e+00 4.6563181123884254e+00 -8.7525889729445105e-01 0.0000000000000000e+00 4.6540332825788671e+00 -8.8102067549310514e-01 0.0000000000000000e+00 4.6571138116563864e+00 -8.7841082039972884e-01 0.0000000000000000e+00 4.6548931063442751e+00 -8.8484338748470026e-01 0.0000000000000000e+00 4.6541886767999427e+00 -8.8870972363793077e-01 0.0000000000000000e+00 4.6470955415259212e+00 -9.2499083125054438e-01 0.0000000000000000e+00 4.6479805278559922e+00 -9.2064113302552586e-01 0.0000000000000000e+00 4.6488362749688825e+00 -9.1640812846139086e-01 0.0000000000000000e+00 4.6534775236036339e+00 -8.9257070740656874e-01 0.0000000000000000e+00 4.6496675742666564e+00 -9.1227427855899645e-01 0.0000000000000000e+00 4.6527550093140180e+00 -8.9643653523666622e-01 0.0000000000000000e+00 4.6520162953077833e+00 -9.0032240959408305e-01 0.0000000000000000e+00 4.6512570229898627e+00 -9.0424620692100488e-01 0.0000000000000000e+00 4.6504745048037517e+00 -9.0822504395240411e-01 0.0000000000000000e+00 4.6708443434297875e+00 -8.2587370906600566e-01 0.0000000000000000e+00 4.6777317707169104e+00 -8.1855611641983494e-01 0.0000000000000000e+00 4.6735345171983305e+00 -8.3414788353675162e-01 0.0000000000000000e+00 4.6648975621239774e+00 -8.5410857242589566e-01 0.0000000000000000e+00 4.6622105972017298e+00 -8.5874019016313641e-01 0.0000000000000000e+00 4.6694022229437673e+00 -8.4979829389724970e-01 0.0000000000000000e+00 4.6749815769972338e+00 -8.4340878154692100e-01 0.0000000000000000e+00 4.4780804742777116e+00 -1.3244093076078183e+00 0.0000000000000000e+00 4.5051300151328117e+00 -1.3009158681346251e+00 0.0000000000000000e+00 4.5177494404903191e+00 -1.2809517791217913e+00 0.0000000000000000e+00 4.5298833093183379e+00 -1.2650730452417698e+00 0.0000000000000000e+00 4.5369863971577606e+00 -1.2560794590792912e+00 0.0000000000000000e+00 4.5371553025399534e+00 -1.2460655149012552e+00 0.0000000000000000e+00 4.6205204866849368e+00 -1.0516112578306691e+00 0.0000000000000000e+00 4.6134652642512508e+00 -1.0679727831115600e+00 0.0000000000000000e+00 4.6180375815597721e+00 -1.0629391028376547e+00 0.0000000000000000e+00 4.6098905535442913e+00 -1.0789982174684676e+00 0.0000000000000000e+00 4.6064421793424719e+00 -1.0898419241677968e+00 0.0000000000000000e+00 4.5407259267546722e+00 -1.2359302390287603e+00 0.0000000000000000e+00 4.5463994582746032e+00 -1.2282398947677731e+00 0.0000000000000000e+00 4.5460735731057689e+00 -1.2188199199097225e+00 0.0000000000000000e+00 4.5480768850837343e+00 -1.2084364665496004e+00 0.0000000000000000e+00 4.5666943446171162e+00 -1.1628709978362890e+00 0.0000000000000000e+00 4.5609025026836392e+00 -1.1707022450468947e+00 0.0000000000000000e+00 4.5581269942721834e+00 -1.1808657766786745e+00 0.0000000000000000e+00 4.5517759570676279e+00 -1.1983118909204440e+00 0.0000000000000000e+00 4.5578596708249126e+00 -1.1905954405866286e+00 0.0000000000000000e+00 4.5846034973359115e+00 -1.1305722003311818e+00 0.0000000000000000e+00 4.5814648428424967e+00 -1.1411005826146092e+00 0.0000000000000000e+00 4.5776233911055790e+00 -1.1505825366505567e+00 0.0000000000000000e+00 4.5748637454652945e+00 -1.1599205343528369e+00 0.0000000000000000e+00 4.6037184853183701e+00 -1.0996747662667581e+00 0.0000000000000000e+00 4.6010463863775239e+00 -1.1093132744615823e+00 0.0000000000000000e+00 4.5977179318944534e+00 -1.1189311787257641e+00 0.0000000000000000e+00 4.5943763554034751e+00 -1.1286681242782846e+00 0.0000000000000000e+00 4.6503848943031914e+00 -9.2782899693104759e-01 0.0000000000000000e+00 4.6495935094392786e+00 -9.3238231103676994e-01 0.0000000000000000e+00 4.6442338829296252e+00 -9.3900163852298391e-01 0.0000000000000000e+00 4.6487931757001730e+00 -9.3715979732501031e-01 0.0000000000000000e+00 4.6432261616151411e+00 -9.4400964041698998e-01 0.0000000000000000e+00 4.6238428843092185e+00 -1.0395695309917621e+00 0.0000000000000000e+00 4.6251838039484960e+00 -1.0319060683702888e+00 0.0000000000000000e+00 4.6422106335481912e+00 -9.4915951871514181e-01 0.0000000000000000e+00 4.6412005787237129e+00 -9.5444702456395236e-01 0.0000000000000000e+00 4.6285055540666686e+00 -1.0194038105030319e+00 0.0000000000000000e+00 4.6402846933275184e+00 -9.6063729051427793e-01 0.0000000000000000e+00 4.6315389172992312e+00 -1.0070782101858318e+00 0.0000000000000000e+00 4.6390022266730533e+00 -9.7050861360681107e-01 0.0000000000000000e+00 4.6367833931261631e+00 -9.8245015319284057e-01 0.0000000000000000e+00 4.6342322248820720e+00 -9.9475371431474280e-01 0.0000000000000000e+00 4.6285682466036082e+00 -1.0477319642006022e+00 0.0000000000000000e+00 4.0707598309609825e-03 -9.7359626927781370e-02 0.0000000000000000e+00 8.5045515467948012e-03 -9.3678109110547650e-02 0.0000000000000000e+00 3.5299440925636622e-03 -9.7102633146922301e-02 0.0000000000000000e+00 0.0000000000000000e+00 -9.4965787648970984e-02 0.0000000000000000e+00 4.3391663538956724e+00 -1.4825454256580657e+00 0.0000000000000000e+00 4.4408043394904446e+00 -1.3686519419723400e+00 0.0000000000000000e+00 4.4082455011622681e+00 -1.4213649881237389e+00 0.0000000000000000e+00 4.4873397068577843e+00 -1.3488118619373413e+00 0.0000000000000000e+00 2.2190337993079043e+00 -2.1726366920789904e+00 0.0000000000000000e+00 3.4579986186768612e+00 -2.3188496653686119e+00 0.0000000000000000e+00 3.0437831238080411e+00 -2.5736050879768664e+00 0.0000000000000000e+00 3.3547248247383528e+00 -2.4775131325197330e+00 0.0000000000000000e+00 4.1368959654287263e+00 -1.6352304592222973e+00 0.0000000000000000e+00 4.2599283506979777e+00 -1.5811841437608742e+00 0.0000000000000000e+00 4.0711021843828599e+00 -1.7695450231068157e+00 0.0000000000000000e+00 3.9420942291704781e+00 -1.9458849144111385e+00 0.0000000000000000e+00 3.7393786845789689e+00 -2.2277370943982202e+00 0.0000000000000000e+00 9.8387023696