<?xml version='1.0' encoding='utf-8'?>
<VTKFile type="UnstructuredGrid" version="0.1" byte_order="LittleEndian"><UnstructuredGrid><Piece NumberOfPoints="14337" NumberOfCells="7026"><PointData><DataArray type="Float64" format="ascii" Name="displacement" NumberOfComponents="3">3.2019931412554151e+01 9.5708195852148243e+00 0.0000000000000000e+00 3.0187493083717079e+01 9.3370027825979331e+00 0.0000000000000000e+00 2.8322012105064911e+01 8.9231482968787894e+00 0.0000000000000000e+00 3.3687100830889122e+01 9.8481094736779227e+00 0.0000000000000000e+00 3.5285695716571148e+01 9.9032984788832223e+00 0.0000000000000000e+00 3.6681443698938956e+01 1.0008223037437455e+01 0.0000000000000000e+00 3.7974344944886226e+01 9.9433644604386657e+00 0.0000000000000000e+00 4.1521636179497932e+01 -5.5492770056012217e+00 0.0000000000000000e+00 4.1482127983717035e+01 -5.6765757405073458e+00 0.0000000000000000e+00 4.1561219073853763e+01 -5.4216705335910973e+00 0.0000000000000000e+00 4.1601004366992242e+01 -5.2937676711181236e+00 0.0000000000000000e+00 4.1838522764562050e+01 -4.8199376180231956e+00 0.0000000000000000e+00 4.1640969155512884e+01 -5.1657015872144161e+00 0.0000000000000000e+00 4.1687571056976388e+01 -5.0416835756482907e+00 0.0000000000000000e+00 4.1760856147526873e+01 -4.9309571315652017e+00 0.0000000000000000e+00 2.6358846606855156e+01 8.5734959057524929e+00 0.0000000000000000e+00 2.4419213316639606e+01 8.0254539056498526e+00 0.0000000000000000e+00 7.5773062252001635e+00 2.9312189583224493e+00 0.0000000000000000e+00 8.8760397628394383e+00 3.4281063460997356e+00 0.0000000000000000e+00 1.0267286089037054e+01 3.8784543077464075e+00 0.0000000000000000e+00 1.3279428254867726e+01 4.8250904372633787e+00 0.0000000000000000e+00 1.1724919462530194e+01 4.3233283749901101e+00 0.0000000000000000e+00 1.6697731357814881e+01 5.9085268005820559e+00 0.0000000000000000e+00 1.4918127630859489e+01 5.3530822998656840e+00 0.0000000000000000e+00 2.2425355478606900e+01 7.5432425830230692e+00 0.0000000000000000e+00 2.0465276465794670e+01 7.0233728602812215e+00 0.0000000000000000e+00 1.8557444221311677e+01 6.5021578862076037e+00 0.0000000000000000e+00 3.0595633299312620e+01 7.7871485965208596e+00 0.0000000000000000e+00 2.8848708596832378e+01 7.4333818239413114e+00 0.0000000000000000e+00 2.6785363123170583e+01 7.0775913728245730e+00 0.0000000000000000e+00 2.4875236408697987e+01 6.6325819193028828e+00 0.0000000000000000e+00 4.0071388461399444e+01 9.6755979684517524e+00 0.0000000000000000e+00 3.9069907171833975e+01 9.8956211180599567e+00 0.0000000000000000e+00 4.0880571821558419e+01 9.4476972503511654e+00 0.0000000000000000e+00 4.1550811157599746e+01 9.1303842989593189e+00 0.0000000000000000e+00 3.2595985316893625e+01 8.0791202246709375e+00 0.0000000000000000e+00 3.4216701541713562e+01 8.3262637022219614e+00 0.0000000000000000e+00 3.5895409727289469e+01 8.5093970273628052e+00 0.0000000000000000e+00 3.7157685756083623e+01 8.5431347925791172e+00 0.0000000000000000e+00 4.2017756963682380e+01 -4.4337802383314768e+00 0.0000000000000000e+00 4.2040100439807482e+01 -4.3672818886923395e+00 0.0000000000000000e+00 4.2229956997971577e+01 -3.4538449644405440e+00 0.0000000000000000e+00 4.1642794186971486e+01 -5.5150242916945516e+00 0.0000000000000000e+00 4.1442640637306177e+01 -5.8036608036362978e+00 0.0000000000000000e+00 4.1403161690415004e+01 -5.9305930722062730e+00 0.0000000000000000e+00 4.1363682410386595e+01 -6.0574027651945981e+00 0.0000000000000000e+00 4.1622547847561755e+01 -5.6439711284776921e+00 0.0000000000000000e+00 4.1566131671482395e+01 -5.7639038575867207e+00 0.0000000000000000e+00 4.1991405023402208e+01 -4.5024538653294464e+00 0.0000000000000000e+00 4.1689582955750311e+01 -5.3972624913313458e+00 0.0000000000000000e+00 4.1960618979423820e+01 -4.5751181268536945e+00 0.0000000000000000e+00 4.1899546640579338e+01 -4.7262583256438724e+00 0.0000000000000000e+00 4.1930592098337655e+01 -4.6488369524121920e+00 0.0000000000000000e+00 4.1705429444968601e+01 -5.2582532813609317e+00 0.0000000000000000e+00 4.1937426216891829e+01 -4.7921457459043335e+00 0.0000000000000000e+00 4.1867125851788110e+01 -4.8853613724919205e+00 0.0000000000000000e+00 4.1754708915650653e+01 -5.1385539816017980e+00 0.0000000000000000e+00 4.1808702658789180e+01 -5.0015701445629874e+00 0.0000000000000000e+00 6.3567400441986246e+00 2.4980637842576918e+00 0.0000000000000000e+00 2.8897892707995933e+01 6.4600969594297917e+00 0.0000000000000000e+00 2.2708946851249681e+01 6.1755551028815470e+00 0.0000000000000000e+00 2.0866521352696800e+01 5.7059879141093983e+00 0.0000000000000000e+00 5.3439796022666224e+00 1.5150575667591324e+00 0.0000000000000000e+00 6.4508843148480652e+00 1.8869723388665047e+00 0.0000000000000000e+00 7.7064895491012377e+00 2.2006195280010870e+00 0.0000000000000000e+00 9.0558741068749722e+00 2.6088745011681045e+00 0.0000000000000000e+00 1.1970090750608852e+01 3.4474940611883143e+00 0.0000000000000000e+00 1.0558396675238452e+01 3.0194502625622444e+00 0.0000000000000000e+00 1.5235310080669111e+01 4.3518009218694225e+00 0.0000000000000000e+00 1.3664513039938026e+01 3.9195890080950337e+00 0.0000000000000000e+00 1.8818487175075134e+01 5.2100362766170178e+00 0.0000000000000000e+00 1.7000388468056009e+01 4.7744857665480547e+00 0.0000000000000000e+00 2.5396200994858081e+01 5.4109756452455668e+00 0.0000000000000000e+00 2.4818322556318407e+01 5.6976916028102682e+00 0.0000000000000000e+00 2.0674563250587134e+01 4.8271790913858110e+00 0.0000000000000000e+00 2.1278839485491545e+01 4.6227418602507333e+00 0.0000000000000000e+00 4.2394942915023186e+01 8.3962362978384064e+00 0.0000000000000000e+00 4.2028163931736167e+01 8.8133956667023252e+00 0.0000000000000000e+00 4.2762332701413143e+01 7.3331436770391241e+00 0.0000000000000000e+00 4.2603656658280173e+01 7.9650845765627354e+00 0.0000000000000000e+00 4.2332464743697528e+01 -5.3919751885837131e-01 0.0000000000000000e+00 4.2371197083708800e+01 -6.2110683953192150e-02 0.0000000000000000e+00 4.2443909683260237e+01 3.0904907575901236e-01 0.0000000000000000e+00 4.2563721235285989e+01 1.2112698610037929e+00 0.0000000000000000e+00 4.2489140613370189e+01 7.9525361064628453e-01 0.0000000000000000e+00 4.2644143536058714e+01 2.2177609957124083e+00 0.0000000000000000e+00 4.2595304063295927e+01 1.7354225415148525e+00 0.0000000000000000e+00 4.2694398780354881e+01 2.6936184901088893e+00 0.0000000000000000e+00 4.2733629313677959e+01 3.2285429989376122e+00 0.0000000000000000e+00 4.2745197610207285e+01 3.8533247075485888e+00 0.0000000000000000e+00 4.2803802843688274e+01 4.4223308713810212e+00 0.0000000000000000e+00 4.2808653362873493e+01 6.6399088273257147e+00 0.0000000000000000e+00 4.2810416882491083e+01 5.1207606670486241e+00 0.0000000000000000e+00 4.2856136673161643e+01 5.7963378214033794e+00 0.0000000000000000e+00 4.2199710726271405e+01 -2.6901168532678446e+00 0.0000000000000000e+00 4.2188519970751962e+01 -2.3847677245956573e+00 0.0000000000000000e+00 4.2173649906444297e+01 -2.0240455879372576e+00 0.0000000000000000e+00 4.2257947020169141e+01 -8.5615844186319423e-01 0.0000000000000000e+00 4.2220144366646551e+01 -1.2894649690941229e+00 0.0000000000000000e+00 4.2191394831001695e+01 -1.6648561340465440e+00 0.0000000000000000e+00 3.9418506596184130e+01 8.4457675505581129e+00 0.0000000000000000e+00 3.8447703384492982e+01 8.5313279450162351e+00 0.0000000000000000e+00 4.0480929042011425e+01 8.3876348589782204e+00 0.0000000000000000e+00 4.1183698158767669e+01 8.1960474787913018e+00 0.0000000000000000e+00 3.2806627795485007e+01 7.1833833953834967e+00 0.0000000000000000e+00 2.9849712740388480e+01 6.3068366356945482e+00 0.0000000000000000e+00 3.5928128224857026e+01 7.4592784011284827e+00 0.0000000000000000e+00 3.3380407524451535e+01 6.7523109838025359e+00 0.0000000000000000e+00 4.2170758405220695e+01 -3.9492248432128347e+00 0.0000000000000000e+00 4.2158251553630528e+01 -3.9900314486892889e+00 0.0000000000000000e+00 4.2141835725426191e+01 -4.0435850183302904e+00 0.0000000000000000e+00 4.2055250380510074e+01 -4.4824870478481227e+00 0.0000000000000000e+00 4.2067849642504996e+01 -4.4196161692947857e+00 0.0000000000000000e+00 4.2122438253660647e+01 -4.1066098490203835e+00 0.0000000000000000e+00 4.2102318526507531e+01 -4.1714525685773545e+00 0.0000000000000000e+00 4.2087730531028811e+01 -4.3639175179062786e+00 0.0000000000000000e+00 4.2061367600024973e+01 -4.3016225547821936e+00 0.0000000000000000e+00 4.2081965339409940e+01 -4.2364282006948510e+00 0.0000000000000000e+00 4.2100582216721371e+01 -4.2827803258149055e+00 0.0000000000000000e+00 4.2215358862699993e+01 -2.9484128007921209e+00 0.0000000000000000e+00 4.2231851223070649e+01 -3.3155005803868387e+00 0.0000000000000000e+00 4.2222433437274660e+01 -3.1468354834180583e+00 0.0000000000000000e+00 4.2232293377247267e+01 -3.5819015727665104e+00 0.0000000000000000e+00 4.2235825577545349e+01 -3.6921886182871724e+00 0.0000000000000000e+00 4.2303251571715009e+01 -3.5778762633262975e+00 0.0000000000000000e+00 4.2311012845294350e+01 -3.4523774677277350e+00 0.0000000000000000e+00 4.0709516251393794e+01 -7.4428137751590953e+00 0.0000000000000000e+00 4.0949025174906453e+01 -7.2208773258396226e+00 0.0000000000000000e+00 4.1786807462648866e+01 -5.4250359470224163e+00 0.0000000000000000e+00 4.1741324001325971e+01 -5.4937066279386846e+00 0.0000000000000000e+00 4.1720272757451262e+01 -5.5833417867614497e+00 0.0000000000000000e+00 4.1041931767643746e+01 -7.0724086013536676e+00 0.0000000000000000e+00 4.1086045466674591e+01 -6.9441109066908915e+00 0.0000000000000000e+00 4.1126033299669444e+01 -6.8172665923561375e+00 0.0000000000000000e+00 4.1324187600989319e+01 -6.1841145918054323e+00 0.0000000000000000e+00 4.1284661601319947e+01 -6.3107643477704993e+00 0.0000000000000000e+00 4.1165807271554534e+01 -6.6905851702457824e+00 0.0000000000000000e+00 4.1205486393874523e+01 -6.5639707922466402e+00 0.0000000000000000e+00 4.1245099489775683e+01 -6.4373774707743658e+00 0.0000000000000000e+00 4.1525602885800915e+01 -5.8947662529370808e+00 0.0000000000000000e+00 4.1503135282010959e+01 -6.0309251132594000e+00 0.0000000000000000e+00 4.1440188649394671e+01 -6.1525349356896113e+00 0.0000000000000000e+00 4.1725875253068445e+01 -5.6700543425859022e+00 0.0000000000000000e+00 4.1678579406205223e+01 -5.7443774973917838e+00 0.0000000000000000e+00 4.1654767376703745e+01 -5.8628342397847106e+00 0.0000000000000000e+00 4.2022299191335804e+01 -4.5489345582039666e+00 0.0000000000000000e+00 4.2079002814374562e+01 -4.5329234459342009e+00 0.0000000000000000e+00 4.1784285034203478e+01 -5.3412064598708380e+00 0.0000000000000000e+00 4.1854527663350908e+01 -5.3973137000156006e+00 0.0000000000000000e+00 4.2004208835986951e+01 -4.6262271759114855e+00 0.0000000000000000e+00 4.1970083912273758e+01 -4.7149311811613765e+00 0.0000000000000000e+00 4.1801216804941276e+01 -5.2476088571466359e+00 0.0000000000000000e+00 4.1993451073402262e+01 -4.7698797032333626e+00 0.0000000000000000e+00 4.1846995597262023e+01 -5.1718547980896767e+00 0.0000000000000000e+00 4.1985805662726541e+01 -4.8078813333517463e+00 0.0000000000000000e+00 4.1949125655727251e+01 -4.8567358888092880e+00 0.0000000000000000e+00 4.1906415480092456e+01 -4.9371675479147497e+00 0.0000000000000000e+00 4.1859114586820986e+01 -5.0894875080227804e+00 0.0000000000000000e+00 4.1900900770587384e+01 -5.0142957286080092e+00 0.0000000000000000e+00 4.0266420366293310e+01 -7.7892190172278664e+00 0.0000000000000000e+00 3.9590047570095336e+01 -8.3006686025864056e+00 0.0000000000000000e+00 3.8795292754146807e+01 -8.9376954112120259e+00 0.0000000000000000e+00 4.3424681183776102e+00 1.2042254186134658e+00 0.0000000000000000e+00 5.2438566772725101e+00 2.0761695604472248e+00 0.0000000000000000e+00 2.3969559139166794e+01 4.5226423791250632e+00 0.0000000000000000e+00 3.2169756797598863e+00 5.8088431387053574e-01 0.0000000000000000e+00 2.0332852392801128e+00 1.6193363449693945e-01 0.0000000000000000e+00 1.7437812113383536e+01 3.8385452166701928e+00 0.0000000000000000e+00 1.6899143604734697e+01 4.0112620098114657e+00 0.0000000000000000e+00 3.3844115305771889e+00 5.9281146444856292e-01 0.0000000000000000e+00 5.0430303977883248e+00 1.0647894389894432e+00 0.0000000000000000e+00 5.3795267882950100e+00 1.0641929305616855e+00 0.0000000000000000e+00 7.6169281182165269e+00 1.7500838277078712e+00 0.0000000000000000e+00 1.0507678744340453e+01 2.5541990479916006e+00 0.0000000000000000e+00 8.1824126220955780e+00 1.7965889304475544e+00 0.0000000000000000e+00 1.3357428264110247e+01 3.2302094321093997e+00 0.0000000000000000e+00 1.1047830224141578e+01 2.5064476970539165e+00 0.0000000000000000e+00 1.3679736340257241e+01 2.9808983937169296e+00 0.0000000000000000e+00 1.9031710785048862e+01 3.2025007730638784e+00 0.0000000000000000e+00 1.8111190028929961e+01 3.2148558176191488e+00 0.0000000000000000e+00 1.6121475999626131e+01 3.0970722748245083e+00 0.0000000000000000e+00 1.5019653060531940e+01 2.5896014112076720e+00 0.0000000000000000e+00 4.2332298229148876e+01 7.6855341636021679e+00 0.0000000000000000e+00 4.1892248933162243e+01 7.9659593345325188e+00 0.0000000000000000e+00 4.3015943703820426e+01 6.5213138811360460e+00 0.0000000000000000e+00 4.2790575151691371e+01 7.1526241874546246e+00 0.0000000000000000e+00 4.2646198833737252e+01 -4.5667999469513149e-01 0.0000000000000000e+00 4.2564172537406186e+01 -7.7596856793407554e-01 0.0000000000000000e+00 4.2708710252989924e+01 4.1121879320201116e-02 0.0000000000000000e+00 4.2779422224563774e+01 3.8613860918931692e-01 0.0000000000000000e+00 4.2890805595080451e+01 1.2614529304842683e+00 0.0000000000000000e+00 4.2833719833840469e+01 8.8047612494949556e-01 0.0000000000000000e+00 4.2995420745286154e+01 2.2501917029367018e+00 0.0000000000000000e+00 4.2936990573669753e+01 1.7928664882220049e+00 0.0000000000000000e+00 4.3055701423667557e+01 2.7641146904336571e+00 0.0000000000000000e+00 4.3124912207331427e+01 3.2250244624680002e+00 0.0000000000000000e+00 4.3158513399713357e+01 3.8982727405213500e+00 0.0000000000000000e+00 4.3229878537961461e+01 4.4331511308443110e+00 0.0000000000000000e+00 4.3208180027799756e+01 5.7577175838815018e+00 0.0000000000000000e+00 4.3217619026201668e+01 5.1338566898593498e+00 0.0000000000000000e+00 4.2363845239053802e+01 -2.6957006748752588e+00 0.0000000000000000e+00 4.2344187615865877e+01 -2.9550338495791739e+00 0.0000000000000000e+00 4.2377389011761927e+01 -2.3926831972240765e+00 0.0000000000000000e+00 4.2424204785714281e+01 -2.0124367564409242e+00 0.0000000000000000e+00 4.2513876915593357e+01 -2.6473254082539635e+00 0.0000000000000000e+00 4.2523017155905215e+01 -1.2358106330385787e+00 0.0000000000000000e+00 4.2459303658756021e+01 -1.6246695046667097e+00 0.0000000000000000e+00 4.2621381083914180e+01 -1.9358903011001736e+00 0.0000000000000000e+00 4.2741600190569990e+01 -1.1347751415064673e+00 0.0000000000000000e+00 3.8451793843990110e+01 7.5348166775625636e+00 0.0000000000000000e+00 3.6299838927922160e+01 6.9716483959256754e+00 0.0000000000000000e+00 4.0408497951451018e+01 7.3591910494298611e+00 0.0000000000000000e+00 3.8756385299484116e+01 7.0584099492938561e+00 0.0000000000000000e+00 2.7597033003904485e+01 5.1135357458150388e+00 0.0000000000000000e+00 2.3334331888168951e+01 4.0419386017891101e+00 0.0000000000000000e+00 3.1470818900505581e+01 5.6668053204183435e+00 0.0000000000000000e+00 2.6909625234446693e+01 4.5240679664988752e+00 0.0000000000000000e+00 4.2226515381027156e+01 -3.7574083313903679e+00 0.0000000000000000e+00 4.2212651856689092e+01 -3.8081178238869042e+00 0.0000000000000000e+00 4.2184161722544189e+01 -3.9056282916992413e+00 0.0000000000000000e+00 4.2198489036199085e+01 -3.8573607073498835e+00 0.0000000000000000e+00 4.2192483122603704e+01 -3.9453748833985158e+00 0.0000000000000000e+00 4.2181116159769132e+01 -4.0183458797633911e+00 0.0000000000000000e+00 4.2199880240971702e+01 -3.9808948370444037e+00 0.0000000000000000e+00 4.2185948732036763e+01 -4.0480046323116197e+00 0.0000000000000000e+00 4.2174242498129523e+01 -4.0806349927531986e+00 0.0000000000000000e+00 4.2098614731151748e+01 -4.4932347270741539e+00 0.0000000000000000e+00 4.2100773812805187e+01 -4.4525880547629724e+00 0.0000000000000000e+00 4.2111393075155760e+01 -4.4059537486479501e+00 0.0000000000000000e+00 4.2178622821731857e+01 -4.1203946331147989e+00 0.0000000000000000e+00 4.2125046307194019e+01 -4.3690806037937975e+00 0.0000000000000000e+00 4.2158849677202610e+01 -4.1541853700879390e+00 0.0000000000000000e+00 4.2158518686749332e+01 -4.1927716407712854e+00 0.0000000000000000e+00 4.2136578477958906e+01 -4.2266731343360400e+00 0.0000000000000000e+00 4.2119699355939254e+01 -4.3208635286433417e+00 0.0000000000000000e+00 4.2131727680772720e+01 -4.2679218836062685e+00 0.0000000000000000e+00 4.2332413573154341e+01 -3.1491090114411859e+00 0.0000000000000000e+00 4.2316705580091487e+01 -3.3158534696929944e+00 0.0000000000000000e+00 4.2425858352547607e+01 -3.1203740218169598e+00 0.0000000000000000e+00 4.2371494891180149e+01 -3.4326107033656794e+00 0.0000000000000000e+00 4.2292708473349798e+01 -3.6867642489815942e+00 0.0000000000000000e+00 4.2278252728023290e+01 -3.7440853442846178e+00 0.0000000000000000e+00 4.2336526594099496e+01 -3.6725085250892771e+00 0.0000000000000000e+00 4.2369803104065390e+01 -3.5843905845156119e+00 0.0000000000000000e+00 4.0804764697391704e+01 -7.5987652691715057e+00 0.0000000000000000e+00 4.1016244232167217e+01 -7.3386078200263727e+00 0.0000000000000000e+00 4.1139880768286872e+01 -7.1718867788994531e+00 0.0000000000000000e+00 4.1831680582071989e+01 -5.4790727818125147e+00 0.0000000000000000e+00 4.1912550112379115e+01 -5.4511001729500581e+00 0.0000000000000000e+00 4.1810585569071456e+01 -5.5571542187516538e+00 0.0000000000000000e+00 4.1797560969749355e+01 -5.6404002898736598e+00 0.0000000000000000e+00 4.1172254481559357e+01 -7.0357803703253667e+00 0.0000000000000000e+00 4.1226216029960142e+01 -6.9122455906853268e+00 0.0000000000000000e+00 4.1246565702208272e+01 -6.7816288340953053e+00 0.0000000000000000e+00 4.1419316210514637e+01 -6.2927649629188682e+00 0.0000000000000000e+00 4.1361858162538972e+01 -6.4120570691091778e+00 0.0000000000000000e+00 4.1277988235226829e+01 -6.6632787495955395e+00 0.0000000000000000e+00 4.1337390286551013e+01 -6.5483169920532811e+00 0.0000000000000000e+00 4.1608964053211984e+01 -5.9657607909122889e+00 0.0000000000000000e+00 4.1606677627028226e+01 -6.0631650649094659e+00 0.0000000000000000e+00 4.1553092056519908e+01 -6.1402718307847008e+00 0.0000000000000000e+00 4.1525819833385150e+01 -6.2347605092537277e+00 0.0000000000000000e+00 4.1771917667978791e+01 -5.7262488230332806e+00 0.0000000000000000e+00 4.1749517598437400e+01 -5.8018658299050614e+00 0.0000000000000000e+00 4.1753008181631259e+01 -5.8847785558109322e+00 0.0000000000000000e+00 4.1711889032811506e+01 -5.9517132550850205e+00 0.0000000000000000e+00 4.2120407734699405e+01 -4.5230105461765504e+00 0.0000000000000000e+00 4.2062224266307012e+01 -4.5872396775697020e+00 0.0000000000000000e+00 4.2110235666435464e+01 -4.5679240543077633e+00 0.0000000000000000e+00 4.2061725138345771e+01 -4.6368083688260358e+00 0.0000000000000000e+00 4.1930400459042957e+01 -5.3697943126857863e+00 0.0000000000000000e+00 4.1866451404663025e+01 -5.3126096159587668e+00 0.0000000000000000e+00 4.2041463422730018e+01 -4.6818820003281640e+00 0.0000000000000000e+00 4.2030021847163447e+01 -4.7388576366684880e+00 0.0000000000000000e+00 4.1891163682888596e+01 -5.2313315600080328e+00 0.0000000000000000e+00 4.2027002029895868e+01 -4.7887834892335617e+00 0.0000000000000000e+00 4.1913813101207630e+01 -5.1482782491821872e+00 0.0000000000000000e+00 4.2009122654155625e+01 -4.8380437490689605e+00 0.0000000000000000e+00 4.1980022235595051e+01 -4.9026678723376156e+00 0.0000000000000000e+00 4.1957246154795470e+01 -4.9851711194572452e+00 0.0000000000000000e+00 4.1937431204109608e+01 -5.0655321965253242e+00 0.0000000000000000e+00 0.0000000000000000e+00 -1.1985384907613485e-01 0.0000000000000000e+00 0.0000000000000000e+00 -1.2642870546846213e-01 0.0000000000000000e+00 4.0313990913419268e+01 -8.0085653261485650e+00 0.0000000000000000e+00 3.9724009095724185e+01 -8.6372169364262437e+00 0.0000000000000000e+00 3.7957886356082561e+01 -9.7244998614211635e+00 0.0000000000000000e+00 3.8974625494725963e+01 -9.3283613308663202e+00 0.0000000000000000e+00 3.6933898637973051e+01 -1.0778516381270968e+01 0.0000000000000000e+00 3.5518375000536139e+01 -1.2192753662332144e+01 0.0000000000000000e+00 3.2746106536753700e+01 -1.4487557736123987e+01 0.0000000000000000e+00 3.3603576935699873e+00 8.6551337645223303e-01 0.0000000000000000e+00 1.8171732211756286e+00 1.1818300178143980e-01 0.0000000000000000e+00 4.1967714768909365e+00 1.6903953387027051e+00 0.0000000000000000e+00 1.5520109060338832e+01 2.1000215250299079e+00 0.0000000000000000e+00 1.2029884893077019e+01 1.9966951915719333e+00 0.0000000000000000e+00 8.8661399897506532e-01 -2.6587069296607524e-01 0.0000000000000000e+00 1.5607579494813533e+00 -5.3499321942995233e-02 0.0000000000000000e+00 9.4062233423101627e-01 -2.7942545240774930e-01 0.0000000000000000e+00 1.2287413737506552e+00 -2.4403870444261017e-01 0.0000000000000000e+00 1.1100259255212789e+01 1.9554060950193095e+00 0.0000000000000000e+00 2.3884510461714696e+00 1.1982772007686002e-01 0.0000000000000000e+00 2.6021146847759034e+00 1.3464279621964087e-01 0.0000000000000000e+00 4.2157390014961980e+00 5.7772155341888531e-01 0.0000000000000000e+00 7.2775743871550098e+00 1.3812417966423118e+00 0.0000000000000000e+00 4.7132733294463440e+00 6.3509997357091208e-01 0.0000000000000000e+00 9.5114985607606499e+00 1.7862267947235433e+00 0.0000000000000000e+00 6.9219413796460705e+00 1.1580540363164504e+00 0.0000000000000000e+00 8.3849940832745098e+00 1.3488481349975556e+00 0.0000000000000000e+00 1.0833217789998438e+01 1.2473079682149364e+00 0.0000000000000000e+00 1.0076510903533128e+01 1.2622856499184052e+00 0.0000000000000000e+00 9.3868608530168132e+00 1.2441119285782749e+00 0.0000000000000000e+00 4.1914282399912111e+01 6.8475787149150689e+00 0.0000000000000000e+00 4.0702982651594581e+01 6.8396624726333712e+00 0.0000000000000000e+00 4.2953473043626069e+01 5.6735433291775861e+00 0.0000000000000000e+00 4.2148669014000610e+01 6.0077232617339904e+00 0.0000000000000000e+00 4.2867549335264201e+01 -3.7366269429386711e-01 0.0000000000000000e+00 4.2878504693092083e+01 -7.0414889915158851e-01 0.0000000000000000e+00 4.2991134185822425e+01 4.5018505294500988e-01 0.0000000000000000e+00 4.2993668316287383e+01 7.0300700818774348e-02 0.0000000000000000e+00 4.3094755000079992e+01 1.3203215552776586e+00 0.0000000000000000e+00 4.3099986016642390e+01 9.0379225895371329e-01 0.0000000000000000e+00 4.3233511084596621e+01 2.3106392396992907e+00 0.0000000000000000e+00 4.3215394404135651e+01 1.7889857182151245e+00 0.0000000000000000e+00 4.3344819975834078e+01 2.7606006456457077e+00 0.0000000000000000e+00 4.3347346576922483e+01 3.2687880870003685e+00 0.0000000000000000e+00 4.3366093271655345e+01 3.8066832466523430e+00 0.0000000000000000e+00 4.3335046354795892e+01 4.4464940671126829e+00 0.0000000000000000e+00 4.3059756613755866e+01 4.8860811334305625e+00 0.0000000000000000e+00 4.2514593721653149e+01 -2.9470143925300203e+00 0.0000000000000000e+00 4.2620394201599510e+01 -2.3867874417029662e+00 0.0000000000000000e+00 4.2625955244893902e+01 -2.7173413844283525e+00 0.0000000000000000e+00 4.2755051475753127e+01 -1.5953038571657092e+00 0.0000000000000000e+00 4.2732453192854727e+01 -2.0654855082547794e+00 0.0000000000000000e+00 4.2884864273912747e+01 -1.2525229274546432e+00 0.0000000000000000e+00 3.4665256066439404e+01 6.0045371499478328e+00 0.0000000000000000e+00 3.0518367406586247e+01 4.9621489038818378e+00 0.0000000000000000e+00 3.7404640231503066e+01 6.1188437261123410e+00 0.0000000000000000e+00 3.3868723280510274e+01 5.2991685721601920e+00 0.0000000000000000e+00 1.7700939459314924e+01 2.3133211813401364e+00 0.0000000000000000e+00 2.0908683825075872e+01 2.6811604843005439e+00 0.0000000000000000e+00 4.2226486065397722e+01 -3.9250098745766646e+00 0.0000000000000000e+00 4.2261086858600414e+01 -3.7960886002462879e+00 0.0000000000000000e+00 4.2245341774250576e+01 -3.8421631347321008e+00 0.0000000000000000e+00 4.2233762130973652e+01 -3.8826309402912034e+00 0.0000000000000000e+00 4.2235244272336807e+01 -3.9612836262460958e+00 0.0000000000000000e+00 4.2208612091053951e+01 -4.0227544251230718e+00 0.0000000000000000e+00 4.2243326971061094e+01 -3.9950466916284899e+00 0.0000000000000000e+00 4.2217181793318154e+01 -4.0636734667467671e+00 0.0000000000000000e+00 4.2208537839318829e+01 -4.1050072102315927e+00 0.0000000000000000e+00 4.2129613240807579e+01 -4.4798057263297508e+00 0.0000000000000000e+00 4.2138661517832681e+01 -4.4371125168975176e+00 0.0000000000000000e+00 4.2147571656262784e+01 -4.3949134777320049e+00 0.0000000000000000e+00 4.2199889633361138e+01 -4.1462658146069167e+00 0.0000000000000000e+00 4.2156392649267914e+01 -4.3530936976650567e+00 0.0000000000000000e+00 4.2191232073101553e+01 -4.1875037788791261e+00 0.0000000000000000e+00 4.2182562007801721e+01 -4.2287636388528966e+00 0.0000000000000000e+00 4.2173870431989258e+01 -4.2700870541154741e+00 0.0000000000000000e+00 4.2165151599857580e+01 -4.3115125548658790e+00 0.0000000000000000e+00 4.2427373058983676e+01 -3.3132830016391925e+00 0.0000000000000000e+00 4.2532214555505824e+01 -3.1687176483059600e+00 0.0000000000000000e+00 4.2448823369746819e+01 -3.4706928190951367e+00 0.0000000000000000e+00 4.2337792044892602e+01 -3.7365494016287832e+00 0.0000000000000000e+00 4.2306092741579427e+01 -3.7852061066718008e+00 0.0000000000000000e+00 4.2390257794422020e+01 -3.6892497330321503e+00 0.0000000000000000e+00 4.2459595498845239e+01 -3.6042750043418019e+00 0.0000000000000000e+00 4.0716304799467466e+01 -7.8357747513059275e+00 0.0000000000000000e+00 4.0972736835741131e+01 -7.6077301751218593e+00 0.0000000000000000e+00 4.1081584137322636e+01 -7.4276749740765178e+00 0.0000000000000000e+00 4.1183648936033208e+01 -7.2857033044344668e+00 0.0000000000000000e+00 4.1249692186453132e+01 -7.2026614305223804e+00 0.0000000000000000e+00 4.1251021675101875e+01 -7.1083342836858607e+00 0.0000000000000000e+00 4.1981798039231208e+01 -5.4275841572761365e+00 0.0000000000000000e+00 4.1894924997276227e+01 -5.5323322821816356e+00 0.0000000000000000e+00 4.1965946067896169e+01 -5.5065664314139546e+00 0.0000000000000000e+00 4.1877422882829983e+01 -5.6133570227383816e+00 0.0000000000000000e+00 4.1859977478470327e+01 -5.6943033887453378e+00 0.0000000000000000e+00 4.1283483414795207e+01 -7.0134804974659799e+00 0.0000000000000000e+00 4.1336134828117494e+01 -6.9417728338591722e+00 0.0000000000000000e+00 4.1332383509203360e+01 -6.8523082458697466e+00 0.0000000000000000e+00 4.1350696335295410e+01 -6.7539971234240328e+00 0.0000000000000000e+00 4.1523757540500171e+01 -6.3276643877864647e+00 0.0000000000000000e+00 4.1470293517177154e+01 -6.3995421681231646e+00 0.0000000000000000e+00 4.1444462802290538e+01 -6.4942571873756769e+00 0.0000000000000000e+00 4.1385142616675481e+01 -6.6583733351082586e+00 0.0000000000000000e+00 4.1442081189884831e+01 -6.5860123163627282e+00 0.0000000000000000e+00 4.1683853056640068e+01 -6.0367061323716955e+00 0.0000000000000000e+00 4.1657457617274765e+01 -6.1304567894430706e+00 0.0000000000000000e+00 4.1623484656664871e+01 -6.2162291939189087e+00 0.0000000000000000e+00 4.1599012113381299e+01 -6.3019199360897540e+00 0.0000000000000000e+00 4.1842649999539461e+01 -5.7751119751532523e+00 0.0000000000000000e+00 4.1825188776318242e+01 -5.8558320247576496e+00 0.0000000000000000e+00 4.1799026028413621e+01 -5.9369902475075573e+00 0.0000000000000000e+00 4.1771434042372292e+01 -6.0223694268774794e+00 0.0000000000000000e+00 4.2162209952809775e+01 -4.5083350317731670e+00 0.0000000000000000e+00 4.2153601335127561e+01 -4.5518351066887890e+00 0.0000000000000000e+00 4.2099617616564657e+01 -4.6160706544559611e+00 0.0000000000000000e+00 4.2145441385222824e+01 -4.5988926989859014e+00 0.0000000000000000e+00 4.2089219158833330e+01 -4.6651176559437539e+00 0.0000000000000000e+00 4.2000807939279767e+01 -5.3478700624932554e+00 0.0000000000000000e+00 4.1948016433209503e+01 -5.2884296281917909e+00 0.0000000000000000e+00 4.2078727815396647e+01 -4.7146688180730170e+00 0.0000000000000000e+00 4.2068192971926756e+01 -4.7644488132653606e+00 0.0000000000000000e+00 4.1966172473455785e+01 -5.2063738441315310e+00 0.0000000000000000e+00 4.2057242947941717e+01 -4.8155048723643423e+00 0.0000000000000000e+00 4.1986890955986738e+01 -5.1217595728028389e+00 0.0000000000000000e+00 4.2044052184642396e+01 -4.8754777026941554e+00 0.0000000000000000e+00 4.2026939780589068e+01 -4.9528951961287193e+00 0.0000000000000000e+00 4.2007368389711097e+01 -5.0365705035405917e+00 0.0000000000000000e+00 4.2047201488555153e+01 -5.4062284110857997e+00 0.0000000000000000e+00 5.2886947693578075e-03 -1.2631809538172706e-01 0.0000000000000000e+00 1.1082063048118490e-02 -1.2137208396537949e-01 0.0000000000000000e+00 4.5845897980809408e-03 -1.2598598791583121e-01 0.0000000000000000e+00 0.0000000000000000e+00 -1.2321691841335213e-01 0.0000000000000000e+00 3.9638998986810037e+01 -9.1814403489326306e+00 0.0000000000000000e+00 4.0371568679592414e+01 -8.2492378795888666e+00 0.0000000000000000e+00 4.0112751817327165e+01 -8.7056699636691679e+00 0.0000000000000000e+00 4.0783660368983760e+01 -8.0655786647980641e+00 0.0000000000000000e+00 1.8479375030468255e+01 -1.4638891555285635e+01 0.0000000000000000e+00 3.0895811751693383e+01 -1.6818529685090137e+01 0.0000000000000000e+00 2.6123775280162651e+01 -1.8374029257622905e+01 0.0000000000000000e+00 2.9779819566208175e+01 -1.7932275001272870e+01 0.0000000000000000e+00 3.8325832465174798e+01 -1.0236064029352821e+01 0.0000000000000000e+00 3.9224476376474996e+01 -9.8630041437441260e+00 0.0000000000000000e+00 3.7650627776164342e+01 -1.1434749219672698e+01 0.0000000000000000e+00 3.6028877587968232e+01 -1.3159907073148451e+01 0.0000000000000000e+00 3.3756739506081104e+01 -1.5753028577465182e+01 0.0000000000000000e+00 7.1911993638659926e+00 -4.7524170952762264e+00 0.0000000000